7
Lattice="16.0 0.0 0.0 0.0 16.0 0.0 0.0 0.0 16.0" Properties=species:S:1:pos:R:3 energy=-5.647403144229677 dipole="0.0036744886328845512 -0.049118232102468594 0.03602537357033754" free_energy=-5.682088272468586 pbc="F F F"
Na       9.65555007       8.04778327       7.84129770 
Na       6.34444993       7.93813284       7.90197155 
Na       7.86693199       7.35572049       4.96549135 
Na       8.13721899       5.16674597       7.50126770 
Na       7.59231315      10.63064333       6.08606078 
Na       7.99326391      10.83325403       9.41682506 
Na       8.19776605       7.34919024      11.03450865 
