
  ___ ___ ___ _ _ _  
 |   |   |_  | | | | 
 | | | | | . | | | | 
 |__ |  _|___|_____|  19.8.1
 |___|_|             

User:   holmins@hebbe2
Date:   Wed Feb  5 17:39:46 2020
Arch:   x86_64
Pid:    16617
Python: 3.7.2
gpaw:   /apps/Hebbe7/software/MPI/intel/2019.1.144-GCC-8.2.0-2.31.1/impi/2018.4.274/GPAW/19.8.1-Python-3.7.2/lib/python3.7/site-packages/gpaw
_gpaw:  /apps/Hebbe7/software/MPI/intel/2019.1.144-GCC-8.2.0-2.31.1/impi/2018.4.274/GPAW/19.8.1-Python-3.7.2/lib/python3.7/site-packages/
        _gpaw.cpython-37m-x86_64-linux-gnu.so
ase:    /apps/Hebbe7/software/MPI/intel/2019.1.144-GCC-8.2.0-2.31.1/impi/2018.4.274/ASE/3.18.0-Python-3.7.2/lib/python3.7/site-packages/ase (version 3.18.0)
numpy:  /apps/Hebbe7/software/MPI/intel/2019.1.144-GCC-8.2.0-2.31.1/impi/2018.4.274/SciPy-bundle/2019.03/lib/python3.7/site-packages/numpy (version 1.16.2)
scipy:  /apps/Hebbe7/software/MPI/intel/2019.1.144-GCC-8.2.0-2.31.1/impi/2018.4.274/SciPy-bundle/2019.03/lib/python3.7/site-packages/scipy (version 1.2.1)
libxc:  4.3.4
units:  Angstrom and eV
cores:  1

Input parameters:
  basis: dzp
  h: 0.25
  mode: lcao
  nbands: 10
  occupations: {name: fermi-dirac,
                width: 0.05}
  setups: {Na: 1}

System changes: positions, numbers, cell, pbc, initial_charges, initial_magmoms 

Initialize ...

Na-setup:
  name: Sodium
  id: fa5c50181d04022fed15b2593599c257
  Z: 11
  valence: 1
  core: 10
  charge: 0.0
  file: /apps/Common/Core/GPAW-setups/0.9.20000/Na.1.LDA.gz
  compensation charges: gauss, rc=0.43, lmax=2
  cutoffs: 2.36(filt), 3.60(core),
  valence states:
                energy  radius
    3s(1.00)    -2.819   1.349
    3p(0.00)    -0.774   1.349
    *s          24.392   1.349

  LCAO basis set for Na:
    Name: 1.dzp
    File: /apps/Common/Core/GPAW-setups/0.9.20000/Na.1.dzp.basis.gz
    Number of radial functions: 3
    Number of spherical harmonics: 5
      l=0, rc=11.7656 Bohr: 3s-sz confined orbital
      l=0, rc=7.1094 Bohr: 3s-dz split-valence wave
      l=1, rc=11.7656 Bohr: p-type Gaussian polarization

Reference energy: -30790.959854

Spin-paired calculation

Occupation numbers:
  Fermi-Dirac: width=0.0500 eV

Convergence criteria:
  Maximum total energy change: 0.0005 eV / electron
  Maximum integral of absolute density change: 0.0001 electrons
  Maximum integral of absolute eigenstate change: 4e-08 eV^2
  Maximum number of iterations: 333

Symmetries present (total): 1

  ( 1  0  0)
  ( 0  1  0)
  ( 0  0  1)

1 k-point (Gamma)
1 k-point in the irreducible part of the Brillouin zone
       k-points in crystal coordinates                weights
   0:     0.00000000    0.00000000    0.00000000          1/1

Wave functions: LCAO
  Diagonalizer: Serial LAPACK
  Atomic Correction: dense with blas
  Datatype: float
 

Eigensolver
   LCAO using direct dense diagonalizer 

Densities:
  Coarse grid: 64*64*64 grid
  Fine grid: 128*128*128 grid
  Total Charge: 0.000000 

Density mixing:
  Method: separate
  Backend: pulay
  Linear mixing parameter: 0.25
  Mixing with 3 old densities
  No damping of long wave oscillations 

Hamiltonian:
  XC and Coulomb potentials evaluated on a 128*128*128 grid
  Using the LDA Exchange-Correlation functional
  Interpolation: tri-quintic (5. degree polynomial)
  Poisson solver: FastPoissonSolver using
    6*3+1=19 point O(h^6) finite-difference Laplacian stencil;
    FFT axes: [];
    FST axes: [0, 1, 2].
 

Memory estimate:
  Process memory now: 372.29 MiB
  Calculator: 132.36 MiB
    Density: 83.08 MiB
      Arrays: 50.70 MiB
      Localized functions: 20.93 MiB
      Mixer: 11.45 MiB
    Hamiltonian: 34.67 MiB
      Arrays: 33.16 MiB
      XC: 0.00 MiB
      Poisson: 0.00 MiB
      vbar: 1.51 MiB
    Wavefunctions: 14.61 MiB
      C [qnM]: 0.00 MiB
      S, T [2 x qmm]: 0.02 MiB
      P [aqMi]: 0.00 MiB
      BasisFunctions: 14.58 MiB
      Eigensolver: 0.00 MiB

Total number of cores used: 1

Number of atoms: 7
Number of atomic orbitals: 35
Number of bands in calculation: 10
Bands to converge: occupied states only
Number of valence electrons: 7

... initialized

Initializing position-dependent things.

Density initialized from atomic densities
           .--------------------------------------.  
          /|                                      |  
         / |                                      |  
        /  |                                      |  
       /   |                                      |  
      /    |                                      |  
     /     |                                      |  
    /      |                                      |  
   /       |                                      |  
  /        |                                      |  
 *         |                                      |  
 |         |               Na                     |  
 |         |              Na                      |  
 |         |                                      |  
 |         |                                      |  
 |         |         Na       Na                  |  
 |         |              Na                      |  
 |         |            Na                        |  
 |         |                                      |  
 |         |             Na                       |  
 |         .--------------------------------------.  
 |        /                                      /   
 |       /                                      /    
 |      /                                      /     
 |     /                                      /      
 |    /                                      /       
 |   /                                      /        
 |  /                                      /         
 | /                                      /          
 |/                                      /           
 *--------------------------------------*            

Positions:
   0 Na     9.655550    8.047783    7.841298    ( 0.0000,  0.0000,  0.0000)
   1 Na     6.344450    7.938133    7.901972    ( 0.0000,  0.0000,  0.0000)
   2 Na     7.866932    7.355720    4.965491    ( 0.0000,  0.0000,  0.0000)
   3 Na     8.137219    5.166746    7.501268    ( 0.0000,  0.0000,  0.0000)
   4 Na     7.592313   10.630643    6.086061    ( 0.0000,  0.0000,  0.0000)
   5 Na     7.993264   10.833254    9.416825    ( 0.0000,  0.0000,  0.0000)
   6 Na     8.197766    7.349190   11.034509    ( 0.0000,  0.0000,  0.0000)

Unit cell:
           periodic     x           y           z      points  spacing
  1. axis:    no    16.000000    0.000000    0.000000    64     0.2500
  2. axis:    no     0.000000   16.000000    0.000000    64     0.2500
  3. axis:    no     0.000000    0.000000   16.000000    64     0.2500

  Lengths:  16.000000  16.000000  16.000000
  Angles:   90.000000  90.000000  90.000000

Effective grid spacing dv^(1/3) = 0.2500

                     log10-error:    total        iterations:
           time      wfs    density  energy       fermi  poisson
iter:   1  17:39:49          +inf    -5.916899    1      1      
iter:   2  17:39:51         -0.67    -5.717785    34     1      
iter:   3  17:39:52         -0.91    -5.650504    33     1      
iter:   4  17:39:53         -1.36    -5.647971    3      1      
iter:   5  17:39:54         -1.72    -5.647418    2      1      
iter:   6  17:39:56         -2.43    -5.647410    2      1      
iter:   7  17:39:57         -2.66    -5.647404    2      1      
iter:   8  17:39:58         -3.08    -5.647403    2      1      
iter:   9  17:39:59         -3.40    -5.647403    2      1      
iter:  10  17:40:00         -3.77    -5.647403    1      1      
iter:  11  17:40:02         -3.98    -5.647403    2      1      
iter:  12  17:40:03         -4.36    -5.647403    1      1      

Converged after 12 iterations.

Dipole moment: (0.003674, -0.049118, 0.036025) |e|*Ang

Energy contributions relative to reference atoms: (reference = -30790.959854)

Kinetic:        +22.005158
Potential:      -19.139295
External:        +0.000000
XC:              -8.512182
Entropy (-ST):   -0.069370
Local:           +0.033601
--------------------------
Free energy:     -5.682088
Extrapolated:    -5.647403

Fermi level: -2.34703

 Band  Eigenvalues  Occupancy
    0     -4.74387    2.00000
    1     -3.32868    2.00000
    2     -3.21635    2.00000
    3     -2.34702    0.99990
    4     -1.85036    0.00010
    5     -1.67780    0.00000
    6     -1.55414    0.00000
    7      1.16843    0.00000
    8      1.72108    0.00000
    9      2.05313    0.00000

Gap: 0.869 eV
Transition (v -> c):
  (s=0, k=0, n=2, [0.00, 0.00, 0.00]) -> (s=0, k=0, n=3, [0.00, 0.00, 0.00])
Timing:                              incl.     excl.
-----------------------------------------------------------
Basic WFS set positions:             0.000     0.000   0.0% |
Basis functions set positions:       0.059     0.059   0.0% |
LCAO WFS Initialize:                 1.019     0.089   0.0% |
 Hamiltonian:                        0.930     0.000   0.0% |
  Atomic:                            0.117     0.001   0.0% |
   XC Correction:                    0.116     0.116   0.1% |
  Calculate atomic Hamiltonians:     0.008     0.008   0.0% |
  Communicate:                       0.000     0.000   0.0% |
  Hartree integrate/restrict:        0.041     0.041   0.0% |
  Initialize Hamiltonian:            0.006     0.006   0.0% |
  Poisson:                           0.245     0.015   0.0% |
   Communicate bwd 0:                0.026     0.026   0.0% |
   Communicate bwd 1:                0.015     0.015   0.0% |
   Communicate fwd 0:                0.037     0.037   0.0% |
   Communicate fwd 1:                0.034     0.034   0.0% |
   fft:                              0.033     0.033   0.0% |
   fft2:                             0.085     0.085   0.0% |
  XC 3D grid:                        0.504     0.504   0.3% |
  vbar:                              0.010     0.010   0.0% |
P tci:                               0.033     0.033   0.0% |
SCF-cycle:                          13.562     0.010   0.0% |
 Density:                            2.239     0.000   0.0% |
  Atomic density matrices:           0.010     0.010   0.0% |
  Mix:                               1.351     1.351   0.7% |
  Multipole moments:                 0.003     0.003   0.0% |
  Normalize:                         0.003     0.003   0.0% |
  Pseudo density:                    0.872     0.007   0.0% |
   Calculate density matrix:         0.001     0.001   0.0% |
   Construct density:                0.864     0.864   0.5% |
   Symmetrize density:               0.000     0.000   0.0% |
 Hamiltonian:                       10.411     0.001   0.0% |
  Atomic:                            1.282     0.010   0.0% |
   XC Correction:                    1.272     1.272   0.7% |
  Calculate atomic Hamiltonians:     0.080     0.080   0.0% |
  Communicate:                       0.000     0.000   0.0% |
  Hartree integrate/restrict:        0.452     0.452   0.2% |
  Poisson:                           2.712     0.203   0.1% |
   Communicate bwd 0:                0.285     0.285   0.2% |
   Communicate bwd 1:                0.166     0.166   0.1% |
   Communicate fwd 0:                0.379     0.379   0.2% |
   Communicate fwd 1:                0.381     0.381   0.2% |
   fft:                              0.367     0.367   0.2% |
   fft2:                             0.932     0.932   0.5% |
  XC 3D grid:                        5.791     5.791   3.1% ||
  vbar:                              0.093     0.093   0.0% |
 LCAO eigensolver:                   0.901     0.001   0.0% |
  Calculate projections:             0.001     0.001   0.0% |
  DenseAtomicCorrection:             0.003     0.003   0.0% |
  Distribute overlap matrix:         0.000     0.000   0.0% |
  Orbital Layouts:                   0.004     0.004   0.0% |
  Potential matrix:                  0.891     0.891   0.5% |
ST tci:                              0.017     0.017   0.0% |
Set symmetry:                        0.001     0.001   0.0% |
TCI: Evaluate splines:               0.022     0.022   0.0% |
mktci:                               0.001     0.001   0.0% |
Other:                             172.420   172.420  92.1% |------------------------------------|
-----------------------------------------------------------
Total:                                       187.136 100.0%

Date: Wed Feb  5 17:42:53 2020
: Wed Feb  5 17:39:46 2020
