7
Lattice="16.0 0.0 0.0 0.0 16.0 0.0 0.0 0.0 16.0" Properties=species:S:1:pos:R:3:forces:R:3 energy=-5.87315519892635 dipole="0.0002552569402392926 -0.0016782988038256614 -0.000872478802463523" free_energy=-5.907816907872178 pbc="F F F"
Na       9.88553173       8.30039376       7.70453654      -0.00452780      -0.00249391       0.00039898 
Na       6.05228047       8.07586935       7.93968173       0.00573524      -0.00158806      -0.00130811 
Na       7.88575817       7.30357319       5.08270032      -0.00606156      -0.00218185       0.00187728 
Na       8.13164091       5.31453189       7.81281903       0.00090853       0.00013584      -0.00409804 
Na       7.69167505      10.50978551       6.14685182       0.00775707       0.00051914      -0.00462482 
Na       7.97314631      10.51460353       9.51007807      -0.00641811       0.00059345       0.00611839 
Na       8.17108908       7.29881969      10.54830098       0.00396696       0.00045312       0.00255083 
