7
Lattice="16.0 0.0 0.0 0.0 16.0 0.0 0.0 0.0 16.0" Properties=species:S:1:pos:R:3:forces:R:3 energy=-5.847112955282077 dipole="0.004113402646955516 -0.030650381931281907 0.025123979060157942" free_energy=-5.881772096172566 pbc="F F F"
Na       9.85153131       8.20014120       7.83170819       0.02568633       0.02591387      -0.07128480 
Na       6.12079889       8.00996901       8.02066195      -0.03626528       0.01403685      -0.04760453 
Na       7.89199139       7.38745721       5.03957564       0.00225689      -0.02721648       0.03303147 
Na       8.12948665       5.24687896       7.67316975      -0.00077656       0.04924485       0.06609130 
Na       7.63688715      10.51430305       6.11882863       0.01588687      -0.00309524       0.01026645 
Na       8.00195847      10.55709818       9.43422903      -0.01036780       0.01485807       0.02828133 
Na       8.15432463       7.40613602      10.62796625       0.00510009      -0.07322661      -0.01981100 
