
  ___ ___ ___ _ _ _  
 |   |   |_  | | | | 
 | | | | | . | | | | 
 |__ |  _|___|_____|  19.8.1
 |___|_|             

User:   erik@HP-OMEN
Date:   Fri Feb  7 12:21:31 2020
Arch:   x86_64
Pid:    5319
Python: 3.7.5
gpaw:   /home/erik/.local/lib/python3.7/site-packages/gpaw
_gpaw:  /home/erik/.local/lib/python3.7/site-packages/
        _gpaw.cpython-37m-x86_64-linux-gnu.so
ase:    /home/erik/anaconda3/lib/python3.7/site-packages/ase (version 3.19.0)
numpy:  /home/erik/anaconda3/lib/python3.7/site-packages/numpy (version 1.17.4)
scipy:  /home/erik/anaconda3/lib/python3.7/site-packages/scipy (version 1.3.2)
libxc:  3.0.0
units:  Angstrom and eV
cores:  1

Input parameters:
  basis: dzp
  h: 0.25
  mode: lcao
  nbands: 10
  occupations: {name: fermi-dirac,
                width: 0.05}
  setups: {Na: 1}

System changes: positions, numbers, cell, pbc, initial_charges, initial_magmoms 

Initialize ...

Na-setup:
  name: Sodium
  id: fa5c50181d04022fed15b2593599c257
  Z: 11
  valence: 1
  core: 10
  charge: 0.0
  file: /usr/bin/gpaw-setups-0.9.20000/Na.1.LDA.gz
  compensation charges: gauss, rc=0.43, lmax=2
  cutoffs: 2.36(filt), 3.60(core),
  valence states:
                energy  radius
    3s(1.00)    -2.819   1.349
    3p(0.00)    -0.774   1.349
    *s          24.392   1.349

  LCAO basis set for Na:
    Name: 1.dzp
    File: /usr/bin/gpaw-setups-0.9.20000/Na.1.dzp.basis.gz
    Number of radial functions: 3
    Number of spherical harmonics: 5
      l=0, rc=11.7656 Bohr: 3s-sz confined orbital
      l=0, rc=7.1094 Bohr: 3s-dz split-valence wave
      l=1, rc=11.7656 Bohr: p-type Gaussian polarization

Reference energy: -26392.251304

Spin-paired calculation

Occupation numbers:
  Fermi-Dirac: width=0.0500 eV

Convergence criteria:
  Maximum total energy change: 0.0005 eV / electron
  Maximum integral of absolute density change: 0.0001 electrons
  Maximum integral of absolute eigenstate change: 4e-08 eV^2
  Maximum number of iterations: 333

Symmetries present (total): 1

  ( 1  0  0)
  ( 0  1  0)
  ( 0  0  1)

1 k-point (Gamma)
1 k-point in the irreducible part of the Brillouin zone
       k-points in crystal coordinates                weights
   0:     0.00000000    0.00000000    0.00000000          1/1

Wave functions: LCAO
  Diagonalizer: Serial LAPACK
  Atomic Correction: dense with blas
  Datatype: float
 

Eigensolver
   LCAO using direct dense diagonalizer 

Densities:
  Coarse grid: 64*64*64 grid
  Fine grid: 128*128*128 grid
  Total Charge: 0.000000 

Density mixing:
  Method: separate
  Backend: pulay
  Linear mixing parameter: 0.25
  Mixing with 3 old densities
  No damping of long wave oscillations 

Hamiltonian:
  XC and Coulomb potentials evaluated on a 128*128*128 grid
  Using the LDA Exchange-Correlation functional
  Interpolation: tri-quintic (5. degree polynomial)
  Poisson solver: FastPoissonSolver using
    6*3+1=19 point O(h^6) finite-difference Laplacian stencil;
    FFT axes: [];
    FST axes: [0, 1, 2].
 

Memory estimate:
  Process memory now: 1418.73 MiB
  Calculator: 127.06 MiB
    Density: 80.09 MiB
      Arrays: 50.70 MiB
      Localized functions: 17.94 MiB
      Mixer: 11.45 MiB
    Hamiltonian: 34.46 MiB
      Arrays: 33.16 MiB
      XC: 0.00 MiB
      Poisson: 0.00 MiB
      vbar: 1.29 MiB
    Wavefunctions: 12.52 MiB
      C [qnM]: 0.00 MiB
      S, T [2 x qmm]: 0.01 MiB
      P [aqMi]: 0.00 MiB
      BasisFunctions: 12.50 MiB
      Eigensolver: 0.00 MiB

Total number of cores used: 1

Number of atoms: 6
Number of atomic orbitals: 30
Number of bands in calculation: 10
Bands to converge: occupied states only
Number of valence electrons: 6

... initialized

Initializing position-dependent things.

Density initialized from atomic densities
           .--------------------------------------.  
          /|                                      |  
         / |                                      |  
        /  |                                      |  
       /   |                                      |  
      /    |                                      |  
     /     |                                      |  
    /      |                                      |  
   /       |                                      |  
  /        |                                      |  
 *         |                                      |  
 |         |                                      |  
 |         |          Na                          |  
 |         |            Na                        |  
 |         |                                      |  
 |         |               Na                     |  
 |         |            Na                        |  
 |         |                                      |  
 |         |              Na                      |  
 |         |                                      |  
 |         .-------------Na-----------------------.  
 |        /                                      /   
 |       /                                      /    
 |      /                                      /     
 |     /                                      /      
 |    /                                      /       
 |   /                                      /        
 |  /                                      /         
 | /                                      /          
 |/                                      /           
 *--------------------------------------*            

Positions:
   0 Na     7.067612    9.458423    8.911254    ( 0.0000,  0.0000,  0.0000)
   1 Na     6.753529    7.081981   11.181019    ( 0.0000,  0.0000,  0.0000)
   2 Na     7.719195    6.035271    8.210598    ( 0.0000,  0.0000,  0.0000)
   3 Na     8.655705    5.263752    5.142034    ( 0.0000,  0.0000,  0.0000)
   4 Na     7.580252   11.620434    6.481886    ( 0.0000,  0.0000,  0.0000)
   5 Na     8.139119    8.465218    5.679422    ( 0.0000,  0.0000,  0.0000)

Unit cell:
           periodic     x           y           z      points  spacing
  1. axis:    no    16.000000    0.000000    0.000000    64     0.2500
  2. axis:    no     0.000000   16.000000    0.000000    64     0.2500
  3. axis:    no     0.000000    0.000000   16.000000    64     0.2500

  Lengths:  16.000000  16.000000  16.000000
  Angles:   90.000000  90.000000  90.000000

Effective grid spacing dv^(1/3) = 0.2500

                     log10-error:    total        iterations:
           time      wfs    density  energy       fermi  poisson
iter:   1  12:21:36          +inf    -5.136128    0      1      
iter:   2  12:21:38         -0.64    -4.998388    6      1      
iter:   3  12:21:39         -0.84    -4.940477    6      1      
iter:   4  12:21:40         -1.24    -4.933726    3      1      
iter:   5  12:21:42         -2.08    -4.933674    2      1      
iter:   6  12:21:43         -2.32    -4.933682    1      1      
iter:   7  12:21:45         -2.49    -4.933684    1      1      
iter:   8  12:21:46         -3.52    -4.933684    1      1      
iter:   9  12:21:48         -3.74    -4.933684    1      1      
iter:  10  12:21:49         -4.21    -4.933684    1      1      

Converged after 10 iterations.

Dipole moment: (-0.000469, 0.005178, -0.002409) |e|*Ang

Energy contributions relative to reference atoms: (reference = -26392.251304)

Kinetic:        +19.152452
Potential:      -17.081507
External:        +0.000000
XC:              -7.025786
Entropy (-ST):   -0.000002
Local:           +0.021158
--------------------------
Free energy:     -4.933685
Extrapolated:    -4.933684

Fermi level: -2.36982

 Band  Eigenvalues  Occupancy
    0     -4.19867    2.00000
    1     -3.13391    2.00000
    2     -3.12814    2.00000
    3     -1.62412    0.00000
    4     -1.55376    0.00000
    5     -1.54938    0.00000
    6      2.06642    0.00000
    7      2.07866    0.00000
    8      2.45897    0.00000
    9      3.39786    0.00000

Gap: 1.504 eV
Transition (v -> c):
  (s=0, k=0, n=2, [0.00, 0.00, 0.00]) -> (s=0, k=0, n=3, [0.00, 0.00, 0.00])
System changes: positions 

Initializing position-dependent things.

Density initialized from wave functions
           .--------------------------------------.  
          /|                                      |  
         / |                                      |  
        /  |                                      |  
       /   |                                      |  
      /    |                                      |  
     /     |                                      |  
    /      |                                      |  
   /       |                                      |  
  /        |                                      |  
 *         |                                      |  
 |         |               Na                     |  
 |         |                                      |  
 |         |                     Na               |  
 |         |                                      |  
 |         |        Na   Na                       |  
 |         |                                      |  
 |         |                                      |  
 |         |                 Na                   |  
 |         |         Na                           |  
 |         .--------------------------------------.  
 |        /                                      /   
 |       /                                      /    
 |      /                                      /     
 |     /                                      /      
 |    /                                      /       
 |   /                                      /        
 |  /                                      /         
 | /                                      /          
 |/                                      /           
 *--------------------------------------*            

Positions:
   0 Na     7.260931    9.580741    7.493961    ( 0.0000,  0.0000,  0.0000)
   1 Na    10.358243   10.419606    7.991874    ( 0.0000,  0.0000,  0.0000)
   2 Na     8.389072    8.814170   10.443149    ( 0.0000,  0.0000,  0.0000)
   3 Na     6.405310    7.312331    5.318965    ( 0.0000,  0.0000,  0.0000)
   4 Na     5.945555    6.904525    8.783225    ( 0.0000,  0.0000,  0.0000)
   5 Na     9.127926    9.492149    4.829169    ( 0.0000,  0.0000,  0.0000)

Unit cell:
           periodic     x           y           z      points  spacing
  1. axis:    no    16.000000    0.000000    0.000000    64     0.2500
  2. axis:    no     0.000000   16.000000    0.000000    64     0.2500
  3. axis:    no     0.000000    0.000000   16.000000    64     0.2500

  Lengths:  16.000000  16.000000  16.000000
  Angles:   90.000000  90.000000  90.000000

Effective grid spacing dv^(1/3) = 0.2500

                     log10-error:    total        iterations:
           time      wfs    density  energy       fermi  poisson
iter:   1  12:21:51          +inf    -5.515237    7      1      
iter:   2  12:21:52         -0.38    -5.062301    4      1      
iter:   3  12:21:54         -0.60    -4.929082    4      1      
iter:   4  12:21:55         -0.89    -4.892530    3      1      
iter:   5  12:21:56         -1.56    -4.891052    2      1      
iter:   6  12:21:58         -1.77    -4.890122    2      1      
iter:   7  12:21:59         -2.42    -4.890094    1      1      
iter:   8  12:22:01         -2.71    -4.890090    1      1      
iter:   9  12:22:02         -2.94    -4.890089    1      1      
iter:  10  12:22:04         -3.27    -4.890089    1      1      
iter:  11  12:22:05         -3.47    -4.890089    1      1      
iter:  12  12:22:07         -3.84    -4.890089    1      1      
iter:  13  12:22:08         -4.06    -4.890089    1      1      

Converged after 13 iterations.

Dipole moment: (-0.084455, 0.109848, 0.003123) |e|*Ang

Energy contributions relative to reference atoms: (reference = -26392.251304)

Kinetic:        +20.334084
Potential:      -17.904019
External:        +0.000000
XC:              -7.345576
Entropy (-ST):   -0.000008
Local:           +0.025425
--------------------------
Free energy:     -4.890093
Extrapolated:    -4.890089

Fermi level: -2.39262

 Band  Eigenvalues  Occupancy
    0     -4.35143    2.00000
    1     -3.07160    2.00000
    2     -3.06769    2.00000
    3     -1.74844    0.00001
    4     -1.55102    0.00000
    5     -1.54791    0.00000
    6      1.92046    0.00000
    7      1.92729    0.00000
    8      2.18251    0.00000
    9      3.26634    0.00000

Gap: 1.319 eV
Transition (v -> c):
  (s=0, k=0, n=2, [0.00, 0.00, 0.00]) -> (s=0, k=0, n=3, [0.00, 0.00, 0.00])
System changes: positions 

Initializing position-dependent things.

Density initialized from wave functions
           .--------------------------------------.  
          /|                                      |  
         / |                                      |  
        /  |                                      |  
       /   |                                      |  
      /    |                                      |  
     /     |                                      |  
    /      |                                      |  
   /       |                                      |  
  /        |                                      |  
 *         |                                      |  
 |         |                                      |  
 |         |          Na                          |  
 |         |            Na                        |  
 |         |                                      |  
 |         |               Na                     |  
 |         |            Na                        |  
 |         |                                      |  
 |         |              Na                      |  
 |         |                                      |  
 |         .-------------Na-----------------------.  
 |        /                                      /   
 |       /                                      /    
 |      /                                      /     
 |     /                                      /      
 |    /                                      /       
 |   /                                      /        
 |  /                                      /         
 | /                                      /          
 |/                                      /           
 *--------------------------------------*            

Positions:
   0 Na     7.067612    9.458423    8.911254    ( 0.0000,  0.0000,  0.0000)
   1 Na     6.753529    7.081981   11.181019    ( 0.0000,  0.0000,  0.0000)
   2 Na     7.719195    6.035271    8.210598    ( 0.0000,  0.0000,  0.0000)
   3 Na     8.655705    5.263752    5.142034    ( 0.0000,  0.0000,  0.0000)
   4 Na     7.580252   11.620434    6.481886    ( 0.0000,  0.0000,  0.0000)
   5 Na     8.139119    8.465218    5.679422    ( 0.0000,  0.0000,  0.0000)

Unit cell:
           periodic     x           y           z      points  spacing
  1. axis:    no    16.000000    0.000000    0.000000    64     0.2500
  2. axis:    no     0.000000   16.000000    0.000000    64     0.2500
  3. axis:    no     0.000000    0.000000   16.000000    64     0.2500

  Lengths:  16.000000  16.000000  16.000000
  Angles:   90.000000  90.000000  90.000000

Effective grid spacing dv^(1/3) = 0.2500

                     log10-error:    total        iterations:
           time      wfs    density  energy       fermi  poisson
iter:   1  12:22:10          +inf    -5.831857    3      1      
iter:   2  12:22:11         -0.34    -5.161789    3      1      
iter:   3  12:22:12         -0.58    -4.975605    2      1      
iter:   4  12:22:14         -0.84    -4.936413    3      1      
iter:   5  12:22:15         -1.49    -4.934613    2      1      
iter:   6  12:22:17         -1.73    -4.933827    2      1      
iter:   7  12:22:18         -2.21    -4.933689    1      1      
iter:   8  12:22:19         -2.71    -4.933685    1      1      
iter:   9  12:22:21         -2.91    -4.933684    1      1      
iter:  10  12:22:22         -3.51    -4.933684    1      1      
iter:  11  12:22:24         -3.70    -4.933684    1      1      
iter:  12  12:22:25         -4.09    -4.933684    1      1      

Converged after 12 iterations.

Dipole moment: (-0.000453, 0.005227, -0.002496) |e|*Ang

Energy contributions relative to reference atoms: (reference = -26392.251304)

Kinetic:        +19.156251
Potential:      -17.084831
External:        +0.000000
XC:              -7.025927
Entropy (-ST):   -0.000002
Local:           +0.020824
--------------------------
Free energy:     -4.933685
Extrapolated:    -4.933684

Fermi level: -2.36987

 Band  Eigenvalues  Occupancy
    0     -4.19873    2.00000
    1     -3.13396    2.00000
    2     -3.12820    2.00000
    3     -1.62417    0.00000
    4     -1.55382    0.00000
    5     -1.54942    0.00000
    6      2.06635    0.00000
    7      2.07858    0.00000
    8      2.45890    0.00000
    9      3.39780    0.00000

Gap: 1.504 eV
Transition (v -> c):
  (s=0, k=0, n=2, [0.00, 0.00, 0.00]) -> (s=0, k=0, n=3, [0.00, 0.00, 0.00])

Forces in eV/Ang:
  0 Na    0.00590   -0.00897   -0.00112
  1 Na   -0.00174    0.00087    0.00045
  2 Na   -0.00200    0.00477   -0.00043
  3 Na    0.00157   -0.00533    0.00104
  4 Na   -0.00278   -0.00164   -0.00276
  5 Na   -0.00184    0.01103    0.00577

System changes: positions 

Initializing position-dependent things.

Density initialized from wave functions
           .--------------------------------------.  
          /|                                      |  
         / |                                      |  
        /  |                                      |  
       /   |                                      |  
      /    |                                      |  
     /     |                                      |  
    /      |                                      |  
   /       |                                      |  
  /        |                                      |  
 *         |                                      |  
 |         |               Na                     |  
 |         |                                      |  
 |         |                     Na               |  
 |         |                                      |  
 |         |        Na   Na                       |  
 |         |                                      |  
 |         |                                      |  
 |         |                 Na                   |  
 |         |         Na                           |  
 |         .--------------------------------------.  
 |        /                                      /   
 |       /                                      /    
 |      /                                      /     
 |     /                                      /      
 |    /                                      /       
 |   /                                      /        
 |  /                                      /         
 | /                                      /          
 |/                                      /           
 *--------------------------------------*            

Positions:
   0 Na     7.260931    9.580741    7.493961    ( 0.0000,  0.0000,  0.0000)
   1 Na    10.358243   10.419606    7.991874    ( 0.0000,  0.0000,  0.0000)
   2 Na     8.389072    8.814170   10.443149    ( 0.0000,  0.0000,  0.0000)
   3 Na     6.405310    7.312331    5.318965    ( 0.0000,  0.0000,  0.0000)
   4 Na     5.945555    6.904525    8.783225    ( 0.0000,  0.0000,  0.0000)
   5 Na     9.127926    9.492149    4.829169    ( 0.0000,  0.0000,  0.0000)

Unit cell:
           periodic     x           y           z      points  spacing
  1. axis:    no    16.000000    0.000000    0.000000    64     0.2500
  2. axis:    no     0.000000   16.000000    0.000000    64     0.2500
  3. axis:    no     0.000000    0.000000   16.000000    64     0.2500

  Lengths:  16.000000  16.000000  16.000000
  Angles:   90.000000  90.000000  90.000000

Effective grid spacing dv^(1/3) = 0.2500

                     log10-error:    total        iterations:
           time      wfs    density  energy       fermi  poisson
iter:   1  12:22:27          +inf    -5.515192    7      1      
iter:   2  12:22:29         -0.38    -5.062297    4      1      
iter:   3  12:22:30         -0.60    -4.929080    4      1      
iter:   4  12:22:32         -0.89    -4.892530    3      1      
iter:   5  12:22:33         -1.56    -4.891052    2      1      
iter:   6  12:22:34         -1.77    -4.890122    2      1      
iter:   7  12:22:36         -2.42    -4.890094    1      1      
iter:   8  12:22:37         -2.71    -4.890090    1      1      
iter:   9  12:22:39         -2.94    -4.890089    1      1      
iter:  10  12:22:40         -3.27    -4.890089    1      1      
iter:  11  12:22:42         -3.47    -4.890089    1      1      
iter:  12  12:22:43         -3.84    -4.890089    1      1      
iter:  13  12:22:44         -4.06    -4.890089    1      1      

Converged after 13 iterations.

Dipole moment: (-0.084455, 0.109848, 0.003123) |e|*Ang

Energy contributions relative to reference atoms: (reference = -26392.251304)

Kinetic:        +20.334085
Potential:      -17.904019
External:        +0.000000
XC:              -7.345576
Entropy (-ST):   -0.000008
Local:           +0.025425
--------------------------
Free energy:     -4.890093
Extrapolated:    -4.890089

Fermi level: -2.39262

 Band  Eigenvalues  Occupancy
    0     -4.35143    2.00000
    1     -3.07160    2.00000
    2     -3.06769    2.00000
    3     -1.74844    0.00001
    4     -1.55102    0.00000
    5     -1.54791    0.00000
    6      1.92046    0.00000
    7      1.92729    0.00000
    8      2.18251    0.00000
    9      3.26634    0.00000

Gap: 1.319 eV
Transition (v -> c):
  (s=0, k=0, n=2, [0.00, 0.00, 0.00]) -> (s=0, k=0, n=3, [0.00, 0.00, 0.00])

Forces in eV/Ang:
  0 Na   -0.00158   -0.00120   -0.00521
  1 Na    0.00227    0.00163    0.00332
  2 Na    0.00286    0.00100    0.00205
  3 Na    0.00027    0.00089   -0.00107
  4 Na   -0.00154   -0.00343    0.00071
  5 Na   -0.00096   -0.00031   -0.00081

System changes: positions 

Initializing position-dependent things.

Density initialized from wave functions
           .--------------------------------------.  
          /|                                      |  
         / |                                      |  
        /  |                                      |  
       /   |                                      |  
      /    |                                      |  
     /     |                                      |  
    /      |                                      |  
   /       |                                      |  
  /        |                                      |  
 *         |                                      |  
 |         |                                      |  
 |         |          Na                          |  
 |         |            Na                        |  
 |         |                                      |  
 |         |               Na                     |  
 |         |            Na                        |  
 |         |                                      |  
 |         |              Na                      |  
 |         |                                      |  
 |         .-------------Na-----------------------.  
 |        /                                      /   
 |       /                                      /    
 |      /                                      /     
 |     /                                      /      
 |    /                                      /       
 |   /                                      /        
 |  /                                      /         
 | /                                      /          
 |/                                      /           
 *--------------------------------------*            

Positions:
   0 Na     7.067612    9.458423    8.911254    ( 0.0000,  0.0000,  0.0000)
   1 Na     6.753529    7.081981   11.181019    ( 0.0000,  0.0000,  0.0000)
   2 Na     7.719195    6.035271    8.210598    ( 0.0000,  0.0000,  0.0000)
   3 Na     8.655705    5.263752    5.142034    ( 0.0000,  0.0000,  0.0000)
   4 Na     7.580252   11.620434    6.481886    ( 0.0000,  0.0000,  0.0000)
   5 Na     8.139119    8.465218    5.679422    ( 0.0000,  0.0000,  0.0000)

Unit cell:
           periodic     x           y           z      points  spacing
  1. axis:    no    16.000000    0.000000    0.000000    64     0.2500
  2. axis:    no     0.000000   16.000000    0.000000    64     0.2500
  3. axis:    no     0.000000    0.000000   16.000000    64     0.2500

  Lengths:  16.000000  16.000000  16.000000
  Angles:   90.000000  90.000000  90.000000

Effective grid spacing dv^(1/3) = 0.2500

                     log10-error:    total        iterations:
           time      wfs    density  energy       fermi  poisson
iter:   1  12:22:47          +inf    -5.831857    3      1      
iter:   2  12:22:48         -0.34    -5.161789    3      1      
iter:   3  12:22:49         -0.58    -4.975605    2      1      
iter:   4  12:22:51         -0.84    -4.936413    3      1      
iter:   5  12:22:52         -1.49    -4.934613    2      1      
iter:   6  12:22:53         -1.73    -4.933827    2      1      
iter:   7  12:22:55         -2.21    -4.933689    1      1      
iter:   8  12:22:56         -2.71    -4.933685    1      1      
iter:   9  12:22:58         -2.91    -4.933684    1      1      
iter:  10  12:22:59         -3.51    -4.933684    1      1      
iter:  11  12:23:00         -3.70    -4.933684    1      1      
iter:  12  12:23:02         -4.09    -4.933684    1      1      

Converged after 12 iterations.

Dipole moment: (-0.000453, 0.005227, -0.002496) |e|*Ang

Energy contributions relative to reference atoms: (reference = -26392.251304)

Kinetic:        +19.156251
Potential:      -17.084831
External:        +0.000000
XC:              -7.025927
Entropy (-ST):   -0.000002
Local:           +0.020824
--------------------------
Free energy:     -4.933685
Extrapolated:    -4.933684

Fermi level: -2.36987

 Band  Eigenvalues  Occupancy
    0     -4.19873    2.00000
    1     -3.13396    2.00000
    2     -3.12820    2.00000
    3     -1.62417    0.00000
    4     -1.55382    0.00000
    5     -1.54942    0.00000
    6      2.06635    0.00000
    7      2.07858    0.00000
    8      2.45890    0.00000
    9      3.39780    0.00000

Gap: 1.504 eV
Transition (v -> c):
  (s=0, k=0, n=2, [0.00, 0.00, 0.00]) -> (s=0, k=0, n=3, [0.00, 0.00, 0.00])
System changes: positions 

Initializing position-dependent things.

Density initialized from wave functions
           .--------------------------------------.  
          /|                                      |  
         / |                                      |  
        /  |                                      |  
       /   |                                      |  
      /    |                                      |  
     /     |                                      |  
    /      |                                      |  
   /       |                                      |  
  /        |                                      |  
 *         |                                      |  
 |         |               Na                     |  
 |         |                                      |  
 |         |                     Na               |  
 |         |                                      |  
 |         |        Na   Na                       |  
 |         |                                      |  
 |         |                                      |  
 |         |                 Na                   |  
 |         |         Na                           |  
 |         .--------------------------------------.  
 |        /                                      /   
 |       /                                      /    
 |      /                                      /     
 |     /                                      /      
 |    /                                      /       
 |   /                                      /        
 |  /                                      /         
 | /                                      /          
 |/                                      /           
 *--------------------------------------*            

Positions:
   0 Na     7.260931    9.580741    7.493961    ( 0.0000,  0.0000,  0.0000)
   1 Na    10.358243   10.419606    7.991874    ( 0.0000,  0.0000,  0.0000)
   2 Na     8.389072    8.814170   10.443149    ( 0.0000,  0.0000,  0.0000)
   3 Na     6.405310    7.312331    5.318965    ( 0.0000,  0.0000,  0.0000)
   4 Na     5.945555    6.904525    8.783225    ( 0.0000,  0.0000,  0.0000)
   5 Na     9.127926    9.492149    4.829169    ( 0.0000,  0.0000,  0.0000)

Unit cell:
           periodic     x           y           z      points  spacing
  1. axis:    no    16.000000    0.000000    0.000000    64     0.2500
  2. axis:    no     0.000000   16.000000    0.000000    64     0.2500
  3. axis:    no     0.000000    0.000000   16.000000    64     0.2500

  Lengths:  16.000000  16.000000  16.000000
  Angles:   90.000000  90.000000  90.000000

Effective grid spacing dv^(1/3) = 0.2500

                     log10-error:    total        iterations:
           time      wfs    density  energy       fermi  poisson
iter:   1  12:23:03          +inf    -5.515192    7      1      
iter:   2  12:23:05         -0.38    -5.062297    4      1      
iter:   3  12:23:06         -0.60    -4.929080    4      1      
iter:   4  12:23:08         -0.89    -4.892530    3      1      
iter:   5  12:23:09         -1.56    -4.891052    2      1      
iter:   6  12:23:10         -1.77    -4.890122    2      1      
iter:   7  12:23:12         -2.42    -4.890094    1      1      
iter:   8  12:23:13         -2.71    -4.890090    1      1      
iter:   9  12:23:15         -2.94    -4.890089    1      1      
iter:  10  12:23:16         -3.27    -4.890089    1      1      
iter:  11  12:23:18         -3.47    -4.890089    1      1      
iter:  12  12:23:19         -3.84    -4.890089    1      1      
iter:  13  12:23:21         -4.06    -4.890089    1      1      

Converged after 13 iterations.

Dipole moment: (-0.084455, 0.109848, 0.003123) |e|*Ang

Energy contributions relative to reference atoms: (reference = -26392.251304)

Kinetic:        +20.334085
Potential:      -17.904019
External:        +0.000000
XC:              -7.345576
Entropy (-ST):   -0.000008
Local:           +0.025425
--------------------------
Free energy:     -4.890093
Extrapolated:    -4.890089

Fermi level: -2.39262

 Band  Eigenvalues  Occupancy
    0     -4.35143    2.00000
    1     -3.07160    2.00000
    2     -3.06769    2.00000
    3     -1.74844    0.00001
    4     -1.55102    0.00000
    5     -1.54791    0.00000
    6      1.92046    0.00000
    7      1.92729    0.00000
    8      2.18251    0.00000
    9      3.26634    0.00000

Gap: 1.319 eV
Transition (v -> c):
  (s=0, k=0, n=2, [0.00, 0.00, 0.00]) -> (s=0, k=0, n=3, [0.00, 0.00, 0.00])
Timing:                                       incl.     excl.
--------------------------------------------------------------------
Basic WFS set positions:                      0.004     0.002   0.0% |
 Redistribute:                                0.002     0.002   0.0% |
Basis functions set positions:                0.276     0.276   0.0% |
Forces:                                       1.234     0.295   0.1% |
 LCAO forces:                                 0.939     0.001   0.0% |
  Atomic Hamiltonian force:                   0.004     0.004   0.0% |
  Initial:                                    0.000     0.000   0.0% |
   Get density matrix:                        0.000     0.000   0.0% |
  Paw correction:                             0.003     0.003   0.0% |
  Potential:                                  0.874     0.874   0.2% |
  TCI derivative:                             0.057     0.057   0.0% |
  Wait for sum:                               0.000     0.000   0.0% |
LCAO WFS Initialize:                          7.993     0.071   0.0% |
 Density initialized from wave functions:     0.557     0.248   0.0% |
  Calculate density matrix:                   0.000     0.000   0.0% |
  Construct density:                          0.309     0.309   0.1% |
  Symmetrize density:                         0.000     0.000   0.0% |
 Hamiltonian:                                 7.365     0.001   0.0% |
  Atomic:                                     0.956     0.007   0.0% |
   XC Correction:                             0.949     0.949   0.2% |
  Calculate atomic Hamiltonians:              0.034     0.034   0.0% |
  Communicate:                                0.000     0.000   0.0% |
  Hartree integrate/restrict:                 0.111     0.111   0.0% |
  Initialize Hamiltonian:                     0.001     0.001   0.0% |
  Poisson:                                    1.745     0.056   0.0% |
   Communicate bwd 0:                         0.187     0.187   0.0% |
   Communicate bwd 1:                         0.118     0.118   0.0% |
   Communicate fwd 0:                         0.184     0.184   0.0% |
   Communicate fwd 1:                         0.233     0.233   0.0% |
   fft:                                       0.283     0.283   0.1% |
   fft2:                                      0.684     0.684   0.1% |
  XC 3D grid:                                 4.495     4.495   0.8% |
  vbar:                                       0.021     0.021   0.0% |
P tci:                                        0.091     0.091   0.0% |
Redistribute:                                 0.001     0.001   0.0% |
SCF-cycle:                                   95.691     0.051   0.0% |
 Density:                                     8.569     0.004   0.0% |
  Atomic density matrices:                    0.076     0.076   0.0% |
  Mix:                                        4.051     4.051   0.7% |
  Multipole moments:                          0.020     0.020   0.0% |
  Normalize:                                  0.032     0.032   0.0% |
  Pseudo density:                             4.385     0.045   0.0% |
   Calculate density matrix:                  0.006     0.006   0.0% |
   Construct density:                         4.332     4.332   0.8% |
   Symmetrize density:                        0.002     0.002   0.0% |
 Hamiltonian:                                81.917     0.011   0.0% |
  Atomic:                                    10.693     0.086   0.0% |
   XC Correction:                            10.607    10.607   1.9% ||
  Calculate atomic Hamiltonians:              0.415     0.415   0.1% |
  Communicate:                                0.001     0.001   0.0% |
  Hartree integrate/restrict:                 1.235     1.235   0.2% |
  Poisson:                                   17.891     0.639   0.1% |
   Communicate bwd 0:                         2.093     2.093   0.4% |
   Communicate bwd 1:                         1.381     1.381   0.2% |
   Communicate fwd 0:                         1.449     1.449   0.3% |
   Communicate fwd 1:                         1.656     1.656   0.3% |
   fft:                                       3.159     3.159   0.6% |
   fft2:                                      7.515     7.515   1.3% ||
  XC 3D grid:                                51.392    51.392   9.1% |---|
  vbar:                                       0.278     0.278   0.0% |
 LCAO eigensolver:                            5.154     0.008   0.0% |
  Calculate projections:                      0.005     0.005   0.0% |
  DenseAtomicCorrection:                      0.023     0.023   0.0% |
  Distribute overlap matrix:                  0.001     0.001   0.0% |
  Orbital Layouts:                            0.041     0.041   0.0% |
  Potential matrix:                           5.076     5.076   0.9% |
ST tci:                                       0.031     0.031   0.0% |
Set symmetry:                                 0.001     0.001   0.0% |
TCI: Evaluate splines:                        0.025     0.025   0.0% |
mktci:                                        0.018     0.018   0.0% |
Other:                                      460.229   460.229  81.4% |--------------------------------|
--------------------------------------------------------------------
Total:                                                565.596 100.0%

Memory usage: 1.48 GiB
Date: Fri Feb  7 12:30:57 2020
