
  ___ ___ ___ _ _ _  
 |   |   |_  | | | | 
 | | | | | . | | | | 
 |__ |  _|___|_____|  19.8.1
 |___|_|             

User:   erik@HP-OMEN
Date:   Fri Feb  7 13:21:54 2020
Arch:   x86_64
Pid:    442
Python: 3.7.5
gpaw:   /home/erik/.local/lib/python3.7/site-packages/gpaw
_gpaw:  /home/erik/.local/lib/python3.7/site-packages/
        _gpaw.cpython-37m-x86_64-linux-gnu.so
ase:    /home/erik/anaconda3/lib/python3.7/site-packages/ase (version 3.19.0)
numpy:  /home/erik/anaconda3/lib/python3.7/site-packages/numpy (version 1.17.4)
scipy:  /home/erik/anaconda3/lib/python3.7/site-packages/scipy (version 1.3.2)
libxc:  3.0.0
units:  Angstrom and eV
cores:  1

Input parameters:
  basis: dzp
  h: 0.25
  mode: lcao
  nbands: 10
  occupations: {name: fermi-dirac,
                width: 0.05}
  setups: {Na: 1}

System changes: positions, numbers, cell, pbc, initial_charges, initial_magmoms 

Initialize ...

Na-setup:
  name: Sodium
  id: fa5c50181d04022fed15b2593599c257
  Z: 11
  valence: 1
  core: 10
  charge: 0.0
  file: /usr/bin/gpaw-setups-0.9.20000/Na.1.LDA.gz
  compensation charges: gauss, rc=0.43, lmax=2
  cutoffs: 2.36(filt), 3.60(core),
  valence states:
                energy  radius
    3s(1.00)    -2.819   1.349
    3p(0.00)    -0.774   1.349
    *s          24.392   1.349

  LCAO basis set for Na:
    Name: 1.dzp
    File: /usr/bin/gpaw-setups-0.9.20000/Na.1.dzp.basis.gz
    Number of radial functions: 3
    Number of spherical harmonics: 5
      l=0, rc=11.7656 Bohr: 3s-sz confined orbital
      l=0, rc=7.1094 Bohr: 3s-dz split-valence wave
      l=1, rc=11.7656 Bohr: p-type Gaussian polarization

Reference energy: -26392.251304

Spin-paired calculation

Occupation numbers:
  Fermi-Dirac: width=0.0500 eV

Convergence criteria:
  Maximum total energy change: 0.0005 eV / electron
  Maximum integral of absolute density change: 0.0001 electrons
  Maximum integral of absolute eigenstate change: 4e-08 eV^2
  Maximum number of iterations: 333

Symmetries present (total): 1

  ( 1  0  0)
  ( 0  1  0)
  ( 0  0  1)

1 k-point (Gamma)
1 k-point in the irreducible part of the Brillouin zone
       k-points in crystal coordinates                weights
   0:     0.00000000    0.00000000    0.00000000          1/1

Wave functions: LCAO
  Diagonalizer: Serial LAPACK
  Atomic Correction: dense with blas
  Datatype: float
 

Eigensolver
   LCAO using direct dense diagonalizer 

Densities:
  Coarse grid: 64*64*64 grid
  Fine grid: 128*128*128 grid
  Total Charge: 0.000000 

Density mixing:
  Method: separate
  Backend: pulay
  Linear mixing parameter: 0.25
  Mixing with 3 old densities
  No damping of long wave oscillations 

Hamiltonian:
  XC and Coulomb potentials evaluated on a 128*128*128 grid
  Using the LDA Exchange-Correlation functional
  Interpolation: tri-quintic (5. degree polynomial)
  Poisson solver: FastPoissonSolver using
    6*3+1=19 point O(h^6) finite-difference Laplacian stencil;
    FFT axes: [];
    FST axes: [0, 1, 2].
 

Memory estimate:
  Process memory now: 2045.32 MiB
  Calculator: 127.06 MiB
    Density: 80.09 MiB
      Arrays: 50.70 MiB
      Localized functions: 17.94 MiB
      Mixer: 11.45 MiB
    Hamiltonian: 34.46 MiB
      Arrays: 33.16 MiB
      XC: 0.00 MiB
      Poisson: 0.00 MiB
      vbar: 1.29 MiB
    Wavefunctions: 12.52 MiB
      C [qnM]: 0.00 MiB
      S, T [2 x qmm]: 0.01 MiB
      P [aqMi]: 0.00 MiB
      BasisFunctions: 12.50 MiB
      Eigensolver: 0.00 MiB

Total number of cores used: 1

Number of atoms: 6
Number of atomic orbitals: 30
Number of bands in calculation: 10
Bands to converge: occupied states only
Number of valence electrons: 6

... initialized

Initializing position-dependent things.

Density initialized from atomic densities
           .--------------------------------------.  
          /|                                      |  
         / |                                      |  
        /  |                                      |  
       /   |                                      |  
      /    |                                      |  
     /     |                                      |  
    /      |                                      |  
   /       |                                      |  
  /        |                                      |  
 *         |                                      |  
 |         |                                      |  
 |         |          Na                          |  
 |         |            Na                        |  
 |         |                                      |  
 |         |               Na                     |  
 |         |            Na                        |  
 |         |                                      |  
 |         |              Na                      |  
 |         |                                      |  
 |         .-------------Na-----------------------.  
 |        /                                      /   
 |       /                                      /    
 |      /                                      /     
 |     /                                      /      
 |    /                                      /       
 |   /                                      /        
 |  /                                      /         
 | /                                      /          
 |/                                      /           
 *--------------------------------------*            

Positions:
   0 Na     7.067612    9.458423    8.911254    ( 0.0000,  0.0000,  0.0000)
   1 Na     6.753529    7.081981   11.181019    ( 0.0000,  0.0000,  0.0000)
   2 Na     7.719195    6.035271    8.210598    ( 0.0000,  0.0000,  0.0000)
   3 Na     8.655705    5.263752    5.142034    ( 0.0000,  0.0000,  0.0000)
   4 Na     7.580252   11.620434    6.481886    ( 0.0000,  0.0000,  0.0000)
   5 Na     8.139119    8.465218    5.679422    ( 0.0000,  0.0000,  0.0000)

Unit cell:
           periodic     x           y           z      points  spacing
  1. axis:    no    16.000000    0.000000    0.000000    64     0.2500
  2. axis:    no     0.000000   16.000000    0.000000    64     0.2500
  3. axis:    no     0.000000    0.000000   16.000000    64     0.2500

  Lengths:  16.000000  16.000000  16.000000
  Angles:   90.000000  90.000000  90.000000

Effective grid spacing dv^(1/3) = 0.2500

                     log10-error:    total        iterations:
           time      wfs    density  energy       fermi  poisson
iter:   1  13:21:58          +inf    -5.136128    0      1      
iter:   2  13:21:59         -0.64    -4.998388    6      1      
iter:   3Timing:                              incl.     excl.
-----------------------------------------------------------
Basic WFS set positions:             0.000     0.000   0.0% |
Basis functions set positions:       0.033     0.033   0.0% |
LCAO WFS Initialize:                 2.254     0.051   0.0% |
 Hamiltonian:                        2.203     0.000   0.0% |
  Atomic:                            0.314     0.001   0.0% |
   XC Correction:                    0.313     0.313   0.0% |
  Calculate atomic Hamiltonians:     0.006     0.006   0.0% |
  Communicate:                       0.000     0.000   0.0% |
  Hartree integrate/restrict:        0.022     0.022   0.0% |
  Initialize Hamiltonian:            0.003     0.003   0.0% |
  Poisson:                           0.282     0.010   0.0% |
   Communicate bwd 0:                0.027     0.027   0.0% |
   Communicate bwd 1:                0.017     0.017   0.0% |
   Communicate fwd 0:                0.017     0.017   0.0% |
   Communicate fwd 1:                0.084     0.084   0.0% |
   fft:                              0.038     0.038   0.0% |
   fft2:                             0.089     0.089   0.0% |
  XC 3D grid:                        1.571     1.571   0.0% |
  vbar:                              0.005     0.005   0.0% |
P tci:                               0.010     0.010   0.0% |
SCF-cycle:                        3627.530     0.000   0.0% |
 Density:                            0.082     0.000   0.0% |
  Atomic density matrices:           0.001     0.001   0.0% |
  Mix:                               0.042     0.042   0.0% |
  Multipole moments:                 0.000     0.000   0.0% |
  Normalize:                         0.000     0.000   0.0% |
  Pseudo density:                    0.039     0.000   0.0% |
   Calculate density matrix:         0.000     0.000   0.0% |
   Construct density:                0.039     0.039   0.0% |
   Symmetrize density:               0.000     0.000   0.0% |
 Hamiltonian:                     3627.397  3626.031  99.8% |---------------------------------------|
  XC 3D grid:                        1.363     1.363   0.0% |
  vbar:                              0.003     0.003   0.0% |
 LCAO eigensolver:                   0.050     0.000   0.0% |
  Calculate projections:             0.000     0.000   0.0% |
  DenseAtomicCorrection:             0.000     0.000   0.0% |
  Distribute overlap matrix:         0.000     0.000   0.0% |
  Orbital Layouts:                   0.000     0.000   0.0% |
  Potential matrix:                  0.050     0.050   0.0% |
ST tci:                              0.002     0.002   0.0% |
Set symmetry:                        0.001     0.001   0.0% |
TCI: Evaluate splines:               0.016     0.016   0.0% |
mktci:                               0.002     0.002   0.0% |
Other:                               2.699     2.699   0.1% |
-----------------------------------------------------------
Total:                                      3632.547 100.0%

Memory usage: 2.01 GiB
Date: Fri Feb  7 13:49:37 2020
        
 |/                                      /           
 *--------------------------------------*            

Positions:
   0 Na     7.260931    9.580741    7.493961    ( 0.0000,  0.0000,  0.0000)
   1 Na    10.358243   10.419606    7.991874    ( 0.0000,  0.0000,  0.0000)
   2 Na     8.389072    8.814170   10.443149    ( 0.0000,  0.0000,  0.0000)
   3 Na     6.405310    7.312331    5.318965    ( 0.0000,  0.0000,  0.0000)
   4 Na     5.945555    6.904525    8.783225    ( 0.0000,  0.0000,  0.0000)
   5 Na     9.127926    9.492149    4.829169    ( 0.0000,  0.0000,  0.0000)

Unit cell:
           periodic     x           y           z      points  spacing
  1. axis:    no    16.000000    0.000000    0.000000    64     0.2500
  2. axis:    no     0.000000   16.000000    0.000000    64     0.2500
  3. axis:    no     0.000000    0.000000   16.000000    64     0.2500

  Lengths:  16.000000  16.000000  16.000000
  Angles:   90.000000  90.000000  90.000000

Effective grid spacing dv^(1/3) = 0.2500

                     log10-error:    total        iterations:
           time      wfs    density  energy       fermi  poisson
iter:   1  13:22:08          +inf    -5.515237    7      1      
iter:   2  13:22:09         -0.38    -5.062301    4      1      
iter:   3  13:22:10         -0.60    -4.929082    4      1      
iter:   4  13:22:11         -0.89    -4.892530    3      1      
iter:   5  13:22:12         -1.56    -4.891052    2      1      
iter:   6  13:22:13         -1.77    -4.890122    2      1      
iter:   7  13:22:14         -2.42    -4.890094    1      1      
iter:   8  13:22:15         -2.71    -4.890090    1      1      
iter:   9  13:22:16         -2.94    -4.890089    1      1      
iter:  10  13:22:17         -3.27    -4.890089    1      1      
iter:  11  13:22:18         -3.47    -4.890089    1      1      
iter:  12  13:22:18         -3.84    -4.890089    1      1      
iter:  13  13:22:19         -4.06    -4.890089    1      1      

Converged after 13 iterations.

Dipole moment: (-0.084455, 0.109848, 0.003123) |e|*Ang

Energy contributions relative to reference atoms: (reference = -26392.251304)

Kinetic:        +20.334084
Potential:      -17.904019
External:        +0.000000
XC:              -7.345576
Entropy (-ST):   -0.000008
Local:           +0.025425
--------------------------
Free energy:     -4.890093
Extrapolated:    -4.890089

Fermi level: -2.39262

 Band  Eigenvalues  Occupancy
    0     -4.35143    2.00000
    1     -3.07160    2.00000
    2     -3.06769    2.00000
    3     -1.74844    0.00001
    4     -1.55102    0.00000
    5     -1.54791    0.00000
    6      1.92046    0.00000
    7      1.92729    0.00000
    8      2.18251    0.00000
    9      3.26634    0.00000

Gap: 1.319 eV
Transition (v -> c):
  (s=0, k=0, n=2, [0.00, 0.00, 0.00]) -> (s=0, k=0, n=3, [0.00, 0.00, 0.00])
System changes: positions 

Initializing position-dependent things.

Density initialized from wave functions
           .--------------------------------------.  
          /|                                      |  
         / |                                      |  
        /  |                                      |  
       /   |                                      |  
      /    |                                      |  
     /     |                                      |  
    /      |                                      |  
   /       |                                      |  
  /        |                                      |  
 *         |                                      |  
 |         |                                      |  
 |         |          Na                          |  
 |         |            Na                        |  
 |         |                                      |  
 |         |               Na                     |  
 |         |            Na                        |  
 |         |                                      |  
 |         |              Na                      |  
 |         |                                      |  
 |         .-------------Na-----------------------.  
 |        /                                      /   
 |       /                                      /    
 |      /                                      /     
 |     /                                      /      
 |    /                                      /       
 |   /                                      /        
 |  /                                      /         
 | /                                      /          
 |/                                      /           
 *--------------------------------------*            

Positions:
   0 Na     7.067612    9.458423    8.911254    ( 0.0000,  0.0000,  0.0000)
   1 Na     6.753529    7.081981   11.181019    ( 0.0000,  0.0000,  0.0000)
   2 Na     7.719195    6.035271    8.210598    ( 0.0000,  0.0000,  0.0000)
   3 Na     8.655705    5.263752    5.142034    ( 0.0000,  0.0000,  0.0000)
   4 Na     7.580252   11.620434    6.481886    ( 0.0000,  0.0000,  0.0000)
   5 Na     8.139119    8.465218    5.679422    ( 0.0000,  0.0000,  0.0000)

Unit cell:
           periodic     x           y           z      points  spacing
  1. axis:    no    16.000000    0.000000    0.000000    64     0.2500
  2. axis:    no     0.000000   16.000000    0.000000    64     0.2500
  3. axis:    no     0.000000    0.000000   16.000000    64     0.2500

  Lengths:  16.000000  16.000000  16.000000
  Angles:   90.000000  90.000000  90.000000

Effective grid spacing dv^(1/3) = 0.2500

                     log10-error:    total        iterations:
           time      wfs    density  energy       fermi  poisson
iter:   1  13:22:21          +inf    -5.831857    3      1      
iter:   2  13:22:22         -0.34    -5.161789    3      1      
iter:   3  13:22:22         -0.58    -4.975605    2      1      
iter:   4  13:22:23         -0.84    -4.936413    3      1      
iter:   5  13:22:24         -1.49    -4.934613    2      1      
iter:   6  13:22:25         -1.73    -4.933827    2      1      
iter:   7  13:22:26         -2.21    -4.933689    1      1      
iter:   8  13:22:27         -2.71    -4.933685    1      1      
iter:   9  13:22:28         -2.91    -4.933684    1      1      
iter:  10  13:22:29         -3.51    -4.933684    1      1      
iter:  11  13:22:30         -3.70    -4.933684    1      1      
iter:  12  13:22:31         -4.09    -4.933684    1      1      

Converged after 12 iterations.

Dipole moment: (-0.000453, 0.005227, -0.002496) |e|*Ang

Energy contributions relative to reference atoms: (reference = -26392.251304)

Kinetic:        +19.156251
Potential:      -17.084831
External:        +0.000000
XC:              -7.025927
Entropy (-ST):   -0.000002
Local:           +0.020824
--------------------------
Free energy:     -4.933685
Extrapolated:    -4.933684

Fermi level: -2.36987

 Band  Eigenvalues  Occupancy
    0     -4.19873    2.00000
    1     -3.13396    2.00000
    2     -3.12820    2.00000
    3     -1.62417    0.00000
    4     -1.55382    0.00000
    5     -1.54942    0.00000
    6      2.06635    0.00000
    7      2.07858    0.00000
    8      2.45890    0.00000
    9      3.39780    0.00000

Gap: 1.504 eV
Transition (v -> c):
  (s=0, k=0, n=2, [0.00, 0.00, 0.00]) -> (s=0, k=0, n=3, [0.00, 0.00, 0.00])

Forces in eV/Ang:
  0 Na    0.00590   -0.00897   -0.00112
  1 Na   -0.00174    0.00087    0.00045
  2 Na   -0.00200    0.00477   -0.00043
  3 Na    0.00157   -0.00533    0.00104
  4 Na   -0.00278   -0.00164   -0.00276
  5 Na   -0.00184    0.01103    0.00577

System changes: positions 

Initializing position-dependent things.

Density initialized from wave functions
           .--------------------------------------.  
          /|                                      |  
         / |                                      |  
        /  |                                      |  
       /   |                                      |  
      /    |                                      |  
     /     |                                      |  
    /      |                                      |  
   /       |                                      |  
  /        |                                      |  
 *         |                                      |  
 |         |               Na                     |  
 |         |                                      |  
 |         |                     Na               |  
 |         |                                      |  
 |         |        Na   Na                       |  
 |         |                                      |  
 |         |                                      |  
 |         |                 Na                   |  
 |         |         Na                           |  
 |         .--------------------------------------.  
 |        /                                      /   
 |       /                                      /    
 |      /                                      /     
 |     /                                      /      
 |    /                                      /       
 |   /                                      /        
 |  /                                      /         
 | /                                      /          
 |/                                      /           
 *--------------------------------------*            

Positions:
   0 Na     7.260931    9.580741    7.493961    ( 0.0000,  0.0000,  0.0000)
   1 Na    10.358243   10.419606    7.991874    ( 0.0000,  0.0000,  0.0000)
   2 Na     8.389072    8.814170   10.443149    ( 0.0000,  0.0000,  0.0000)
   3 Na     6.405310    7.312331    5.318965    ( 0.0000,  0.0000,  0.0000)
   4 Na     5.945555    6.904525    8.783225    ( 0.0000,  0.0000,  0.0000)
   5 Na     9.127926    9.492149    4.829169    ( 0.0000,  0.0000,  0.0000)

Unit cell:
           periodic     x           y           z      points  spacing
  1. axis:    no    16.000000    0.000000    0.000000    64     0.2500
  2. axis:    no     0.000000   16.000000    0.000000    64     0.2500
  3. axis:    no     0.000000    0.000000   16.000000    64     0.2500

  Lengths:  16.000000  16.000000  16.000000
  Angles:   90.000000  90.000000  90.000000

Effective grid spacing dv^(1/3) = 0.2500

                     log10-error:    total        iterations:
           time      wfs    density  energy       fermi  poisson
iter:   1  13:22:33          +inf    -5.515192    7      1      
iter:   2  13:22:34         -0.38    -5.062297    4      1      
iter:   3  13:22:35         -0.60    -4.929080    4      1      
iter:   4  13:22:36         -0.89    -4.892530    3      1      
iter:   5  13:22:37         -1.56    -4.891052    2      1      
iter:   6  13:22:38         -1.77    -4.890122    2      1      
iter:   7  13:22:39         -2.42    -4.890094    1      1      
iter:   8  13:22:39         -2.71    -4.890090    1      1      
iter:   9  13:22:40         -2.94    -4.890089    1      1      
iter:  10  13:22:41         -3.27    -4.890089    1      1      
iter:  11  13:22:42         -3.47    -4.890089    1      1      
iter:  12  13:22:43         -3.84    -4.890089    1      1      
iter:  13  13:22:44         -4.06    -4.890089    1      1      

Converged after 13 iterations.

Dipole moment: (-0.084455, 0.109848, 0.003123) |e|*Ang

Energy contributions relative to reference atoms: (reference = -26392.251304)

Kinetic:        +20.334085
Potential:      -17.904019
External:        +0.000000
XC:              -7.345576
Entropy (-ST):   -0.000008
Local:           +0.025425
--------------------------
Free energy:     -4.890093
Extrapolated:    -4.890089

Fermi level: -2.39262

 Band  Eigenvalues  Occupancy
    0     -4.35143    2.00000
    1     -3.07160    2.00000
    2     -3.06769    2.00000
    3     -1.74844    0.00001
    4     -1.55102    0.00000
    5     -1.54791    0.00000
    6      1.92046    0.00000
    7      1.92729    0.00000
    8      2.18251    0.00000
    9      3.26634    0.00000

Gap: 1.319 eV
Transition (v -> c):
  (s=0, k=0, n=2, [0.00, 0.00, 0.00]) -> (s=0, k=0, n=3, [0.00, 0.00, 0.00])

Forces in eV/Ang:
  0 Na   -0.00158   -0.00120   -0.00521
  1 Na    0.00227    0.00163    0.00332
  2 Na    0.00286    0.00100    0.00205
  3 Na    0.00027    0.00089   -0.00107
  4 Na   -0.00154   -0.00343    0.00071
  5 Na   -0.00096   -0.00031   -0.00081

System changes: positions 

Initializing position-dependent things.

Density initialized from wave functions
           .--------------------------------------.  
          /|                                      |  
         / |                                      |  
        /  |                                      |  
       /   |                                      |  
      /    |                                      |  
     /     |                                      |  
    /      |                                      |  
   /       |                                      |  
  /        |                                      |  
 *         |                                      |  
 |         |                                      |  
 |         |          Na                          |  
 |         |            Na                        |  
 |         |                                      |  
 |         |               Na                     |  
 |         |            Na                        |  
 |         |                                      |  
 |         |              Na                      |  
 |         |                                      |  
 |         .-------------Na-----------------------.  
 |        /                                      /   
 |       /                                      /    
 |      /                                      /     
 |     /                                      /      
 |    /                                      /       
 |   /                                      /        
 |  /                                      /         
 | /                                      /          
 |/                                      /           
 *--------------------------------------*            

Positions:
   0 Na     7.067612    9.458423    8.911254    ( 0.0000,  0.0000,  0.0000)
   1 Na     6.753529    7.081981   11.181019    ( 0.0000,  0.0000,  0.0000)
   2 Na     7.719195    6.035271    8.210598    ( 0.0000,  0.0000,  0.0000)
   3 Na     8.655705    5.263752    5.142034    ( 0.0000,  0.0000,  0.0000)
   4 Na     7.580252   11.620434    6.481886    ( 0.0000,  0.0000,  0.0000)
   5 Na     8.139119    8.465218    5.679422    ( 0.0000,  0.0000,  0.0000)

Unit cell:
           periodic     x           y           z      points  spacing
  1. axis:    no    16.000000    0.000000    0.000000    64     0.2500
  2. axis:    no     0.000000   16.000000    0.000000    64     0.2500
  3. axis:    no     0.000000    0.000000   16.000000    64     0.2500

  Lengths:  16.000000  16.000000  16.000000
  Angles:   90.000000  90.000000  90.000000

Effective grid spacing dv^(1/3) = 0.2500

                     log10-error:    total        iterations:
           time      wfs    density  energy       fermi  poisson
iter:   1  13:22:46          +inf    -5.831857    3      1      
iter:   2  13:22:47         -0.34    -5.161789    3      1      
iter:   3  13:22:48         -0.58    -4.975605    2      1      
iter:   4  13:22:49         -0.84    -4.936413    3      1      
iter:   5  13:22:50         -1.49    -4.934613    2      1      
iter:   6  13:22:51         -1.73    -4.933827    2      1      
iter:   7  13:22:52         -2.21    -4.933689    1      1      
iter:   8  13:22:53         -2.71    -4.933685    1      1      
iter:   9  13:22:53         -2.91    -4.933684    1      1      
iter:  10  13:22:54         -3.51    -4.933684    1      1      
iter:  11  13:22:55         -3.70    -4.933684    1      1      
iter:  12  13:22:56         -4.09    -4.933684    1      1      

Converged after 12 iterations.

Dipole moment: (-0.000453, 0.005227, -0.002496) |e|*Ang

Energy contributions relative to reference atoms: (reference = -26392.251304)

Kinetic:        +19.156251
Potential:      -17.084831
External:        +0.000000
XC:              -7.025927
Entropy (-ST):   -0.000002
Local:           +0.020824
--------------------------
Free energy:     -4.933685
Extrapolated:    -4.933684

Fermi level: -2.36987

 Band  Eigenvalues  Occupancy
    0     -4.19873    2.00000
    1     -3.13396    2.00000
    2     -3.12820    2.00000
    3     -1.62417    0.00000
    4     -1.55382    0.00000
    5     -1.54942    0.00000
    6      2.06635    0.00000
    7      2.07858    0.00000
    8      2.45890    0.00000
    9      3.39780    0.00000

Gap: 1.504 eV
Transition (v -> c):
  (s=0, k=0, n=2, [0.00, 0.00, 0.00]) -> (s=0, k=0, n=3, [0.00, 0.00, 0.00])
Writing to WFbest.gpw (mode='all')

System changes: positions 

Initializing position-dependent things.

Density initialized from wave functions
           .--------------------------------------.  
          /|                                      |  
         / |                                      |  
        /  |                                      |  
       /   |                                      |  
      /    |                                      |  
     /     |                                      |  
    /      |                                      |  
   /       |                                      |  
  /        |                                      |  
 *         |                                      |  
 |         |               Na                     |  
 |         |                                      |  
 |         |                     Na               |  
 |         |                                      |  
 |         |        Na   Na                       |  
 |         |                                      |  
 |         |                                      |  
 |         |                 Na                   |  
 |         |         Na                           |  
 |         .--------------------------------------.  
 |        /                                      /   
 |       /                                      /    
 |      /                                      /     
 |     /                                      /      
 |    /                                      /       
 |   /                                      /        
 |  /                                      /         
 | /                                      /          
 |/                                      /           
 *--------------------------------------*            

Positions:
   0 Na     7.260931    9.580741    7.493961    ( 0.0000,  0.0000,  0.0000)
   1 Na    10.358243   10.419606    7.991874    ( 0.0000,  0.0000,  0.0000)
   2 Na     8.389072    8.814170   10.443149    ( 0.0000,  0.0000,  0.0000)
   3 Na     6.405310    7.312331    5.318965    ( 0.0000,  0.0000,  0.0000)
   4 Na     5.945555    6.904525    8.783225    ( 0.0000,  0.0000,  0.0000)
   5 Na     9.127926    9.492149    4.829169    ( 0.0000,  0.0000,  0.0000)

Unit cell:
           periodic     x           y           z      points  spacing
  1. axis:    no    16.000000    0.000000    0.000000    64     0.2500
  2. axis:    no     0.000000   16.000000    0.000000    64     0.2500
  3. axis:    no     0.000000    0.000000   16.000000    64     0.2500

  Lengths:  16.000000  16.000000  16.000000
  Angles:   90.000000  90.000000  90.000000

Effective grid spacing dv^(1/3) = 0.2500

                     log10-error:    total        iterations:
           time      wfs    density  energy       fermi  poisson
iter:   1  13:22:57          +inf    -5.515192    7      1      
iter:   2  13:22:59         -0.38    -5.062297    4      1      
iter:   3  13:22:59         -0.60    -4.929080    4      1      
iter:   4  13:23:00         -0.89    -4.892530    3      1      
iter:   5  13:23:01         -1.56    -4.891052    2      1      
iter:   6  13:23:02         -1.77    -4.890122    2      1      
iter:   7  13:23:03         -2.42    -4.890094    1      1      
iter:   8  13:23:04         -2.71    -4.890090    1      1      
iter:   9  13:23:05         -2.94    -4.890089    1      1      
iter:  10  13:23:06         -3.27    -4.890089    1      1      
iter:  11  13:23:07         -3.47    -4.890089    1      1      
iter:  12  13:23:08         -3.84    -4.890089    1      1      
iter:  13  13:23:09         -4.06    -4.890089    1      1      

Converged after 13 iterations.

Dipole moment: (-0.084455, 0.109848, 0.003123) |e|*Ang

Energy contributions relative to reference atoms: (reference = -26392.251304)

Kinetic:        +20.334085
Potential:      -17.904019
External:        +0.000000
XC:              -7.345576
Entropy (-ST):   -0.000008
Local:           +0.025425
--------------------------
Free energy:     -4.890093
Extrapolated:    -4.890089

Fermi level: -2.39262

 Band  Eigenvalues  Occupancy
    0     -4.35143    2.00000
    1     -3.07160    2.00000
    2     -3.06769    2.00000
    3     -1.74844    0.00001
    4     -1.55102    0.00000
    5     -1.54791    0.00000
    6      1.92046    0.00000
    7      1.92729    0.00000
    8      2.18251    0.00000
    9      3.26634    0.00000

Gap: 1.319 eV
Transition (v -> c):
  (s=0, k=0, n=2, [0.00, 0.00, 0.00]) -> (s=0, k=0, n=3, [0.00, 0.00, 0.00])
Writing to WFsecond.gpw (mode='all')

Timing:                                       incl.     excl.
--------------------------------------------------------------------
Basic WFS set positions:                      0.003     0.002   0.0% |
 Redistribute:                                0.001     0.001   0.0% |
Basis functions set positions:                0.166     0.166   0.0% |
Forces:                                       0.712     0.155   0.0% |
 LCAO forces:                                 0.558     0.001   0.0% |
  Atomic Hamiltonian force:                   0.002     0.002   0.0% |
  Initial:                                    0.000     0.000   0.0% |
   Get density matrix:                        0.000     0.000   0.0% |
  Paw correction:                             0.003     0.003   0.0% |
  Potential:                                  0.509     0.509   0.0% |
  TCI derivative:                             0.043     0.043   0.0% |
  Wait for sum:                               0.000     0.000   0.0% |
LCAO WFS Initialize:                          5.422     0.046   0.0% |
 Density initialized from wave functions:     0.398     0.203   0.0% |
  Calculate density matrix:                   0.000     0.000   0.0% |
  Construct density:                          0.195     0.195   0.0% |
  Symmetrize density:                         0.000     0.000   0.0% |
 Hamiltonian:                                 4.978     0.001   0.0% |
  Atomic:                                     0.637     0.005   0.0% |
   XC Correction:                             0.632     0.632   0.0% |
  Calculate atomic Hamiltonians:              0.026     0.026   0.0% |
  Communicate:                                0.000     0.000   0.0% |
  Hartree integrate/restrict:                 0.098     0.098   0.0% |
  Initialize Hamiltonian:                     0.002     0.002   0.0% |
  Poisson:                                    1.242     0.055   0.0% |
   Communicate bwd 0:                         0.144     0.144   0.0% |
   Communicate bwd 1:                         0.093     0.093   0.0% |
   Communicate fwd 0:                         0.102     0.102   0.0% |
   Communicate fwd 1:                         0.129     0.129   0.0% |
   fft:                                       0.218     0.218   0.0% |
   fft2:                                      0.501     0.501   0.0% |
  XC 3D grid:                                 2.949     2.949   0.1% |
  vbar:                                       0.023     0.023   0.0% |
P tci:                                        0.049     0.049   0.0% |
Redistribute:                                 0.001     0.001   0.0% |
SCF-cycle:                                   65.323     0.041   0.0% |
 Density:                                     5.676     0.002   0.0% |
  Atomic density matrices:                    0.046     0.046   0.0% |
  Mix:                                        2.732     2.732   0.1% |
  Multipole moments:                          0.012     0.012   0.0% |
  Normalize:                                  0.023     0.023   0.0% |
  Pseudo density:                             2.860     0.037   0.0% |
   Calculate density matrix:                  0.003     0.003   0.0% |
   Construct density:                         2.818     2.818   0.1% |
   Symmetrize density:                        0.002     0.002   0.0% |
 Hamiltonian:                                55.655     0.008   0.0% |
  Atomic:                                     7.116     0.060   0.0% |
   XC Correction:                             7.056     7.056   0.2% |
  Calculate atomic Hamiltonians:              0.289     0.289   0.0% |
  Communicate:                                0.001     0.001   0.0% |
  Hartree integrate/restrict:                 1.074     1.074   0.0% |
  Poisson:                                   13.834     0.562   0.0% |
   Communicate bwd 0:                         1.611     1.611   0.0% |
   Communicate bwd 1:                         1.057     1.057   0.0% |
   Communicate fwd 0:                         1.062     1.062   0.0% |
   Communicate fwd 1:                         1.349     1.349   0.0% |
   fft:                                       2.394     2.394   0.1% |
   fft2:                                      5.800     5.800   0.2% |
  XC 3D grid:                                33.101    33.101   1.0% |
  vbar:                                       0.233     0.233   0.0% |
 LCAO eigensolver:                            3.951     0.006   0.0% |
  Calculate projections:                      0.004     0.004   0.0% |
  DenseAtomicCorrection:                      0.018     0.018   0.0% |
  Distribute overlap matrix:                  0.001     0.001   0.0% |
  Orbital Layouts:                            0.017     0.017   0.0% |
  Potential matrix:                           3.906     3.906   0.1% |
ST tci:                                       0.016     0.016   0.0% |
Set symmetry:                                 0.001     0.001   0.0% |
TCI: Evaluate splines:                        0.016     0.016   0.0% |
mktci:                                        0.012     0.012   0.0% |
Other:                                     3343.643  3343.643  97.9% |--------------------------------------|
--------------------------------------------------------------------
Total:                                               3415.365 100.0%

Memory usage: 1.99 GiB
Date: Fri Feb  7 14:18:50 2020
