
  ___ ___ ___ _ _ _  
 |   |   |_  | | | | 
 | | | | | . | | | | 
 |__ |  _|___|_____|  19.8.1
 |___|_|             

User:   holmins@hebbe12-2
Date:   Wed Feb  5 21:09:29 2020
Arch:   x86_64
Pid:    21785
Python: 3.7.2
gpaw:   /apps/Hebbe7/software/MPI/intel/2019.1.144-GCC-8.2.0-2.31.1/impi/2018.4.274/GPAW/19.8.1-Python-3.7.2/lib/python3.7/site-packages/gpaw
_gpaw:  /apps/Hebbe7/software/MPI/intel/2019.1.144-GCC-8.2.0-2.31.1/impi/2018.4.274/GPAW/19.8.1-Python-3.7.2/bin/
        gpaw-python
ase:    /apps/Hebbe7/software/MPI/intel/2019.1.144-GCC-8.2.0-2.31.1/impi/2018.4.274/ASE/3.18.0-Python-3.7.2/lib/python3.7/site-packages/ase (version 3.18.0)
numpy:  /apps/Hebbe7/software/MPI/intel/2019.1.144-GCC-8.2.0-2.31.1/impi/2018.4.274/SciPy-bundle/2019.03/lib/python3.7/site-packages/numpy (version 1.16.2)
scipy:  /apps/Hebbe7/software/MPI/intel/2019.1.144-GCC-8.2.0-2.31.1/impi/2018.4.274/SciPy-bundle/2019.03/lib/python3.7/site-packages/scipy (version 1.2.1)
libxc:  4.3.4
units:  Angstrom and eV
cores:  1

Input parameters:
  basis: dzp
  h: 0.25
  mode: lcao
  nbands: 10
  occupations: {name: fermi-dirac,
                width: 0.05}
  setups: {Na: 1}

System changes: positions, numbers, cell, pbc, initial_charges, initial_magmoms 

Initialize ...

Na-setup:
  name: Sodium
  id: fa5c50181d04022fed15b2593599c257
  Z: 11
  valence: 1
  core: 10
  charge: 0.0
  file: /apps/Common/Core/GPAW-setups/0.9.20000/Na.1.LDA.gz
  compensation charges: gauss, rc=0.43, lmax=2
  cutoffs: 2.36(filt), 3.60(core),
  valence states:
                energy  radius
    3s(1.00)    -2.819   1.349
    3p(0.00)    -0.774   1.349
    *s          24.392   1.349

  LCAO basis set for Na:
    Name: 1.dzp
    File: /apps/Common/Core/GPAW-setups/0.9.20000/Na.1.dzp.basis.gz
    Number of radial functions: 3
    Number of spherical harmonics: 5
      l=0, rc=11.7656 Bohr: 3s-sz confined orbital
      l=0, rc=7.1094 Bohr: 3s-dz split-valence wave
      l=1, rc=11.7656 Bohr: p-type Gaussian polarization

Reference energy: -26392.251304

Spin-paired calculation

Occupation numbers:
  Fermi-Dirac: width=0.0500 eV

Convergence criteria:
  Maximum total energy change: 0.0005 eV / electron
  Maximum integral of absolute density change: 0.0001 electrons
  Maximum integral of absolute eigenstate change: 4e-08 eV^2
  Maximum number of iterations: 333

Symmetries present (total): 1

  ( 1  0  0)
  ( 0  1  0)
  ( 0  0  1)

1 k-point (Gamma)
1 k-point in the irreducible part of the Brillouin zone
       k-points in crystal coordinates                weights
   0:     0.00000000    0.00000000    0.00000000          1/1

Wave functions: LCAO
  Diagonalizer: Serial LAPACK
  Atomic Correction: dense with blas
  Datatype: float
 

Eigensolver
   LCAO using direct dense diagonalizer 

Densities:
  Coarse grid: 64*64*64 grid
  Fine grid: 128*128*128 grid
  Total Charge: 0.000000 

Density mixing:
  Method: separate
  Backend: pulay
  Linear mixing parameter: 0.25
  Mixing with 3 old densities
  No damping of long wave oscillations 

Hamiltonian:
  XC and Coulomb potentials evaluated on a 128*128*128 grid
  Using the LDA Exchange-Correlation functional
  Interpolation: tri-quintic (5. degree polynomial)
  Poisson solver: FastPoissonSolver using
    6*3+1=19 point O(h^6) finite-difference Laplacian stencil;
    FFT axes: [];
    FST axes: [0, 1, 2].
 

Memory estimate:
  Process memory now: 279.29 MiB
  Calculator: 127.06 MiB
    Density: 80.09 MiB
      Arrays: 50.70 MiB
      Localized functions: 17.94 MiB
      Mixer: 11.45 MiB
    Hamiltonian: 34.46 MiB
      Arrays: 33.16 MiB
      XC: 0.00 MiB
      Poisson: 0.00 MiB
      vbar: 1.29 MiB
    Wavefunctions: 12.52 MiB
      C [qnM]: 0.00 MiB
      S, T [2 x qmm]: 0.01 MiB
      P [aqMi]: 0.00 MiB
      BasisFunctions: 12.50 MiB
      Eigensolver: 0.00 MiB

Total number of cores used: 1

Number of atoms: 6
Number of atomic orbitals: 30
Number of bands in calculation: 10
Bands to converge: occupied states only
Number of valence electrons: 6

... initialized

Initializing position-dependent things.

Density initialized from atomic densities
           .--------------------------------------.  
          /|                                      |  
         / |                                      |  
        /  |                                      |  
       /   |                                      |  
      /    |                                      |  
     /     |                                      |  
    /      |                                      |  
   /       |                                      |  
  /        |                                      |  
 *         |                                      |  
 |         |                                      |  
 |         |          Na                          |  
 |         |            Na                        |  
 |         |                                      |  
 |         |               Na                     |  
 |         |            Na                        |  
 |         |                                      |  
 |         |              Na                      |  
 |         |                                      |  
 |         .-------------Na-----------------------.  
 |        /                                      /   
 |       /                                      /    
 |      /                                      /     
 |     /                                      /      
 |    /                                      /       
 |   /                                      /        
 |  /                                      /         
 | /                                      /          
 |/                                      /           
 *--------------------------------------*            

Positions:
   0 Na     7.067612    9.458423    8.911254    ( 0.0000,  0.0000,  0.0000)
   1 Na     6.753529    7.081981   11.181019    ( 0.0000,  0.0000,  0.0000)
   2 Na     7.719195    6.035271    8.210598    ( 0.0000,  0.0000,  0.0000)
   3 Na     8.655705    5.263752    5.142034    ( 0.0000,  0.0000,  0.0000)
   4 Na     7.580252   11.620434    6.481886    ( 0.0000,  0.0000,  0.0000)
   5 Na     8.139119    8.465218    5.679422    ( 0.0000,  0.0000,  0.0000)

Unit cell:
           periodic     x           y           z      points  spacing
  1. axis:    no    16.000000    0.000000    0.000000    64     0.2500
  2. axis:    no     0.000000   16.000000    0.000000    64     0.2500
  3. axis:    no     0.000000    0.000000   16.000000    64     0.2500

  Lengths:  16.000000  16.000000  16.000000
  Angles:   90.000000  90.000000  90.000000

Effective grid spacing dv^(1/3) = 0.2500

                     log10-error:    total        iterations:
           time      wfs    density  energy       fermi  poisson
iter:   1  21:09:33          +inf    -5.136128    0      1      
iter:   2  21:09:34         -0.64    -4.998388    6      1      
iter:   3  21:09:35         -0.84    -4.940477    6      1      
iter:   4  21:09:36         -1.24    -4.933726    3      1      
iter:   5  21:09:37         -2.08    -4.933674    2      1      
iter:   6  21:09:38         -2.32    -4.933682    1      1      
iter:   7  21:09:39         -2.49    -4.933684    1      1      
iter:   8  21:09:40         -3.52    -4.933684    1      1      
iter:   9  21:09:41         -3.74    -4.933684    1      1      
iter:  10  21:09:41         -4.21    -4.933684    1      1      

Converged after 10 iterations.

Dipole moment: (-0.000469, 0.005178, -0.002409) |e|*Ang

Energy contributions relative to reference atoms: (reference = -26392.251304)

Kinetic:        +19.152452
Potential:      -17.081507
External:        +0.000000
XC:              -7.025786
Entropy (-ST):   -0.000002
Local:           +0.021158
--------------------------
Free energy:     -4.933685
Extrapolated:    -4.933684

Fermi level: -2.36982

 Band  Eigenvalues  Occupancy
    0     -4.19867    2.00000
    1     -3.13391    2.00000
    2     -3.12814    2.00000
    3     -1.62412    0.00000
    4     -1.55376    0.00000
    5     -1.54938    0.00000
    6      2.06642    0.00000
    7      2.07866    0.00000
    8      2.45897    0.00000
    9      3.39786    0.00000

Gap: 1.504 eV
Transition (v -> c):
  (s=0, k=0, n=2, [0.00, 0.00, 0.00]) -> (s=0, k=0, n=3, [0.00, 0.00, 0.00])
System changes: positions 

Initializing position-dependent things.

Density initialized from wave functions
           .--------------------------------------.  
          /|                                      |  
         / |                                      |  
        /  |                                      |  
       /   |                                      |  
      /    |                                      |  
     /     |                                      |  
    /      |                                      |  
   /       |                                      |  
  /        |                                      |  
 *         |                                      |  
 |         |               Na                     |  
 |         |                                      |  
 |         |                     Na               |  
 |         |                                      |  
 |         |        Na   Na                       |  
 |         |                                      |  
 |         |                                      |  
 |         |                 Na                   |  
 |         |         Na                           |  
 |         .--------------------------------------.  
 |        /                                      /   
 |       /                                      /    
 |      /                                      /     
 |     /                                      /      
 |    /                                      /       
 |   /                                      /        
 |  /                                      /         
 | /                                      /          
 |/                                      /           
 *--------------------------------------*            

Positions:
   0 Na     7.260931    9.580741    7.493961    ( 0.0000,  0.0000,  0.0000)
   1 Na    10.358243   10.419606    7.991874    ( 0.0000,  0.0000,  0.0000)
   2 Na     8.389072    8.814170   10.443149    ( 0.0000,  0.0000,  0.0000)
   3 Na     6.405310    7.312331    5.318965    ( 0.0000,  0.0000,  0.0000)
   4 Na     5.945555    6.904525    8.783225    ( 0.0000,  0.0000,  0.0000)
   5 Na     9.127926    9.492149    4.829169    ( 0.0000,  0.0000,  0.0000)

Unit cell:
           periodic     x           y           z      points  spacing
  1. axis:    no    16.000000    0.000000    0.000000    64     0.2500
  2. axis:    no     0.000000   16.000000    0.000000    64     0.2500
  3. axis:    no     0.000000    0.000000   16.000000    64     0.2500

  Lengths:  16.000000  16.000000  16.000000
  Angles:   90.000000  90.000000  90.000000

Effective grid spacing dv^(1/3) = 0.2500

                     log10-error:    total        iterations:
           time      wfs    density  energy       fermi  poisson
iter:   1  21:09:43          +inf    -5.515237    7      1      
iter:   2  21:09:43         -0.38    -5.062301    4      1      
iter:   3  21:09:44         -0.60    -4.929082    4      1      
iter:   4  21:09:45         -0.89    -4.892530    3      1      
iter:   5  21:09:46         -1.56    -4.891052    2      1      
iter:   6  21:09:47         -1.77    -4.890122    2      1      
iter:   7  21:09:48         -2.42    -4.890094    1      1      
iter:   8  21:09:49         -2.71    -4.890090    1      1      
iter:   9  21:09:50         -2.94    -4.890089    1      1      
iter:  10  21:09:51         -3.27    -4.890089    1      1      
iter:  11  21:09:52         -3.47    -4.890089    1      1      
iter:  12  21:09:53         -3.84    -4.890089    1      1      
iter:  13  21:09:54         -4.06    -4.890089    1      1      

Converged after 13 iterations.

Dipole moment: (-0.084455, 0.109848, 0.003123) |e|*Ang

Energy contributions relative to reference atoms: (reference = -26392.251304)

Kinetic:        +20.334084
Potential:      -17.904019
External:        +0.000000
XC:              -7.345576
Entropy (-ST):   -0.000008
Local:           +0.025425
--------------------------
Free energy:     -4.890093
Extrapolated:    -4.890089

Fermi level: -2.39262

 Band  Eigenvalues  Occupancy
    0     -4.35143    2.00000
    1     -3.07160    2.00000
    2     -3.06769    2.00000
    3     -1.74844    0.00001
    4     -1.55102    0.00000
    5     -1.54791    0.00000
    6      1.92046    0.00000
    7      1.92729    0.00000
    8      2.18251    0.00000
    9      3.26634    0.00000

Gap: 1.319 eV
Transition (v -> c):
  (s=0, k=0, n=2, [0.00, 0.00, 0.00]) -> (s=0, k=0, n=3, [0.00, 0.00, 0.00])
System changes: positions 

Initializing position-dependent things.

Density initialized from wave functions
           .--------------------------------------.  
          /|                                      |  
         / |                                      |  
        /  |                                      |  
       /   |                                      |  
      /    |                                      |  
     /     |                                      |  
    /      |                                      |  
   /       |                                      |  
  /        |                                      |  
 *         |                                      |  
 |         |                                      |  
 |         |          Na                          |  
 |         |            Na                        |  
 |         |                                      |  
 |         |               Na                     |  
 |         |            Na                        |  
 |         |                                      |  
 |         |              Na                      |  
 |         |                                      |  
 |         .-------------Na-----------------------.  
 |        /                                      /   
 |       /                                      /    
 |      /                                      /     
 |     /                                      /      
 |    /                                      /       
 |   /                                      /        
 |  /                                      /         
 | /                                      /          
 |/                                      /           
 *--------------------------------------*            

Positions:
   0 Na     7.067612    9.458423    8.911254    ( 0.0000,  0.0000,  0.0000)
   1 Na     6.753529    7.081981   11.181019    ( 0.0000,  0.0000,  0.0000)
   2 Na     7.719195    6.035271    8.210598    ( 0.0000,  0.0000,  0.0000)
   3 Na     8.655705    5.263752    5.142034    ( 0.0000,  0.0000,  0.0000)
   4 Na     7.580252   11.620434    6.481886    ( 0.0000,  0.0000,  0.0000)
   5 Na     8.139119    8.465218    5.679422    ( 0.0000,  0.0000,  0.0000)

Unit cell:
           periodic     x           y           z      points  spacing
  1. axis:    no    16.000000    0.000000    0.000000    64     0.2500
  2. axis:    no     0.000000   16.000000    0.000000    64     0.2500
  3. axis:    no     0.000000    0.000000   16.000000    64     0.2500

  Lengths:  16.000000  16.000000  16.000000
  Angles:   90.000000  90.000000  90.000000

Effective grid spacing dv^(1/3) = 0.2500

                     log10-error:    total        iterations:
           time      wfs    density  energy       fermi  poisson
iter:   1  21:09:55          +inf    -5.831857    3      1      
iter:   2  21:09:56         -0.34    -5.161789    3      1      
iter:   3  21:09:57         -0.58    -4.975605    2      1      
iter:   4  21:09:58         -0.84    -4.936413    3      1      
iter:   5  21:09:59         -1.49    -4.934613    2      1      
iter:   6  21:10:00         -1.73    -4.933827    2      1      
iter:   7  21:10:01         -2.21    -4.933689    1      1      
iter:   8  21:10:02         -2.71    -4.933685    1      1      
iter:   9  21:10:02         -2.91    -4.933684    1      1      
iter:  10  21:10:03         -3.51    -4.933684    1      1      
iter:  11  21:10:04         -3.70    -4.933684    1      1      
iter:  12  21:10:05         -4.09    -4.933684    1      1      

Converged after 12 iterations.

Dipole moment: (-0.000453, 0.005227, -0.002496) |e|*Ang

Energy contributions relative to reference atoms: (reference = -26392.251304)

Kinetic:        +19.156251
Potential:      -17.084831
External:        +0.000000
XC:              -7.025927
Entropy (-ST):   -0.000002
Local:           +0.020824
--------------------------
Free energy:     -4.933685
Extrapolated:    -4.933684

Fermi level: -2.36987

 Band  Eigenvalues  Occupancy
    0     -4.19873    2.00000
    1     -3.13396    2.00000
    2     -3.12820    2.00000
    3     -1.62417    0.00000
    4     -1.55382    0.00000
    5     -1.54942    0.00000
    6      2.06635    0.00000
    7      2.07858    0.00000
    8      2.45890    0.00000
    9      3.39780    0.00000

Gap: 1.504 eV
Transition (v -> c):
  (s=0, k=0, n=2, [0.00, 0.00, 0.00]) -> (s=0, k=0, n=3, [0.00, 0.00, 0.00])

Forces in eV/Ang:
  0 Na    0.00590   -0.00897   -0.00112
  1 Na   -0.00174    0.00087    0.00045
  2 Na   -0.00200    0.00477   -0.00043
  3 Na    0.00157   -0.00533    0.00104
  4 Na   -0.00278   -0.00164   -0.00276
  5 Na   -0.00184    0.01103    0.00577

System changes: positions 

Initializing position-dependent things.

Density initialized from wave functions
           .--------------------------------------.  
          /|                                      |  
         / |                                      |  
        /  |                                      |  
       /   |                                      |  
      /    |                                      |  
     /     |                                      |  
    /      |                                      |  
   /       |                                      |  
  /        |                                      |  
 *         |                                      |  
 |         |               Na                     |  
 |         |                                      |  
 |         |                     Na               |  
 |         |                                      |  
 |         |        Na   Na                       |  
 |         |                                      |  
 |         |                                      |  
 |         |                 Na                   |  
 |         |         Na                           |  
 |         .--------------------------------------.  
 |        /                                      /   
 |       /                                      /    
 |      /                                      /     
 |     /                                      /      
 |    /                                      /       
 |   /                                      /        
 |  /                                      /         
 | /                                      /          
 |/                                      /           
 *--------------------------------------*            

Positions:
   0 Na     7.260931    9.580741    7.493961    ( 0.0000,  0.0000,  0.0000)
   1 Na    10.358243   10.419606    7.991874    ( 0.0000,  0.0000,  0.0000)
   2 Na     8.389072    8.814170   10.443149    ( 0.0000,  0.0000,  0.0000)
   3 Na     6.405310    7.312331    5.318965    ( 0.0000,  0.0000,  0.0000)
   4 Na     5.945555    6.904525    8.783225    ( 0.0000,  0.0000,  0.0000)
   5 Na     9.127926    9.492149    4.829169    ( 0.0000,  0.0000,  0.0000)

Unit cell:
           periodic     x           y           z      points  spacing
  1. axis:    no    16.000000    0.000000    0.000000    64     0.2500
  2. axis:    no     0.000000   16.000000    0.000000    64     0.2500
  3. axis:    no     0.000000    0.000000   16.000000    64     0.2500

  Lengths:  16.000000  16.000000  16.000000
  Angles:   90.000000  90.000000  90.000000

Effective grid spacing dv^(1/3) = 0.2500

                     log10-error:    total        iterations:
           time      wfs    density  energy       fermi  poisson
iter:   1  21:10:07          +inf    -5.515192    7      1      
iter:   2  21:10:08         -0.38    -5.062297    4      1      
iter:   3  21:10:09         -0.60    -4.929080    4      1      
iter:   4  21:10:10         -0.89    -4.892530    3      1      
iter:   5  21:10:11         -1.56    -4.891052    2      1      
iter:   6  21:10:11         -1.77    -4.890122    2      1      
iter:   7  21:10:12         -2.42    -4.890094    1      1      
iter:   8  21:10:13         -2.71    -4.890090    1      1      
iter:   9  21:10:14         -2.94    -4.890089    1      1      
iter:  10  21:10:15         -3.27    -4.890089    1      1      
iter:  11  21:10:16         -3.47    -4.890089    1      1      
iter:  12  21:10:17         -3.84    -4.890089    1      1      
iter:  13  21:10:18         -4.06    -4.890089    1      1      

Converged after 13 iterations.

Dipole moment: (-0.084455, 0.109848, 0.003123) |e|*Ang

Energy contributions relative to reference atoms: (reference = -26392.251304)

Kinetic:        +20.334085
Potential:      -17.904019
External:        +0.000000
XC:              -7.345576
Entropy (-ST):   -0.000008
Local:           +0.025425
--------------------------
Free energy:     -4.890093
Extrapolated:    -4.890089

Fermi level: -2.39262

 Band  Eigenvalues  Occupancy
    0     -4.35143    2.00000
    1     -3.07160    2.00000
    2     -3.06769    2.00000
    3     -1.74844    0.00001
    4     -1.55102    0.00000
    5     -1.54791    0.00000
    6      1.92046    0.00000
    7      1.92729    0.00000
    8      2.18251    0.00000
    9      3.26634    0.00000

Gap: 1.319 eV
Transition (v -> c):
  (s=0, k=0, n=2, [0.00, 0.00, 0.00]) -> (s=0, k=0, n=3, [0.00, 0.00, 0.00])

Forces in eV/Ang:
  0 Na   -0.00158   -0.00120   -0.00521
  1 Na    0.00227    0.00163    0.00332
  2 Na    0.00286    0.00100    0.00205
  3 Na    0.00027    0.00089   -0.00107
  4 Na   -0.00154   -0.00343    0.00071
  5 Na   -0.00096   -0.00031   -0.00081

System changes: positions 

Initializing position-dependent things.

Density initialized from wave functions
           .--------------------------------------.  
          /|                                      |  
         / |                                      |  
        /  |                                      |  
       /   |                                      |  
      /    |                                      |  
     /     |                                      |  
    /      |                                      |  
   /       |                                      |  
  /        |                                      |  
 *         |                                      |  
 |         |                                      |  
 |         |          Na                          |  
 |         |            Na                        |  
 |         |                                      |  
 |         |               Na                     |  
 |         |            Na                        |  
 |         |                                      |  
 |         |              Na                      |  
 |         |                                      |  
 |         .-------------Na-----------------------.  
 |        /                                      /   
 |       /                                      /    
 |      /                                      /     
 |     /                                      /      
 |    /                                      /       
 |   /                                      /        
 |  /                                      /         
 | /                                      /          
 |/                                      /           
 *--------------------------------------*            

Positions:
   0 Na     7.067612    9.458423    8.911254    ( 0.0000,  0.0000,  0.0000)
   1 Na     6.753529    7.081981   11.181019    ( 0.0000,  0.0000,  0.0000)
   2 Na     7.719195    6.035271    8.210598    ( 0.0000,  0.0000,  0.0000)
   3 Na     8.655705    5.263752    5.142034    ( 0.0000,  0.0000,  0.0000)
   4 Na     7.580252   11.620434    6.481886    ( 0.0000,  0.0000,  0.0000)
   5 Na     8.139119    8.465218    5.679422    ( 0.0000,  0.0000,  0.0000)

Unit cell:
           periodic     x           y           z      points  spacing
  1. axis:    no    16.000000    0.000000    0.000000    64     0.2500
  2. axis:    no     0.000000   16.000000    0.000000    64     0.2500
  3. axis:    no     0.000000    0.000000   16.000000    64     0.2500

  Lengths:  16.000000  16.000000  16.000000
  Angles:   90.000000  90.000000  90.000000

Effective grid spacing dv^(1/3) = 0.2500

                     log10-error:    total        iterations:
           time      wfs    density  energy       fermi  poisson
iter:   1  21:10:20          +inf    -5.831857    3      1      
iter:   2  21:10:20         -0.34    -5.161789    3      1      
iter:   3  21:10:21         -0.58    -4.975605    2      1      
iter:   4  21:10:22         -0.84    -4.936413    3      1      
iter:   5  21:10:23         -1.49    -4.934613    2      1      
iter:   6  21:10:24         -1.73    -4.933827    2      1      
iter:   7  21:10:25         -2.21    -4.933689    1      1      
iter:   8  21:10:26         -2.71    -4.933685    1      1      
iter:   9  21:10:27         -2.91    -4.933684    1      1      
iter:  10  21:10:28         -3.51    -4.933684    1      1      
iter:  11  21:10:29         -3.70    -4.933684    1      1      
iter:  12  21:10:30         -4.09    -4.933684    1      1      

Converged after 12 iterations.

Dipole moment: (-0.000453, 0.005227, -0.002496) |e|*Ang

Energy contributions relative to reference atoms: (reference = -26392.251304)

Kinetic:        +19.156251
Potential:      -17.084831
External:        +0.000000
XC:              -7.025927
Entropy (-ST):   -0.000002
Local:           +0.020824
--------------------------
Free energy:     -4.933685
Extrapolated:    -4.933684

Fermi level: -2.36987

 Band  Eigenvalues  Occupancy
    0     -4.19873    2.00000
    1     -3.13396    2.00000
    2     -3.12820    2.00000
    3     -1.62417    0.00000
    4     -1.55382    0.00000
    5     -1.54942    0.00000
    6      2.06635    0.00000
    7      2.07858    0.00000
    8      2.45890    0.00000
    9      3.39780    0.00000

Gap: 1.504 eV
Transition (v -> c):
  (s=0, k=0, n=2, [0.00, 0.00, 0.00]) -> (s=0, k=0, n=3, [0.00, 0.00, 0.00])
System changes: positions 

Initializing position-dependent things.

Density initialized from wave functions
           .--------------------------------------.  
          /|                                      |  
         / |                                      |  
        /  |                                      |  
       /   |                                      |  
      /    |                                      |  
     /     |                                      |  
    /      |                                      |  
   /       |                                      |  
  /        |                                      |  
 *         |                                      |  
 |         |               Na                     |  
 |         |                                      |  
 |         |                     Na               |  
 |         |                                      |  
 |         |        Na   Na                       |  
 |         |                                      |  
 |         |                                      |  
 |         |                 Na                   |  
 |         |         Na                           |  
 |         .--------------------------------------.  
 |        /                                      /   
 |       /                                      /    
 |      /                                      /     
 |     /                                      /      
 |    /                                      /       
 |   /                                      /        
 |  /                                      /         
 | /                                      /          
 |/                                      /           
 *--------------------------------------*            

Positions:
   0 Na     7.260931    9.580741    7.493961    ( 0.0000,  0.0000,  0.0000)
   1 Na    10.358243   10.419606    7.991874    ( 0.0000,  0.0000,  0.0000)
   2 Na     8.389072    8.814170   10.443149    ( 0.0000,  0.0000,  0.0000)
   3 Na     6.405310    7.312331    5.318965    ( 0.0000,  0.0000,  0.0000)
   4 Na     5.945555    6.904525    8.783225    ( 0.0000,  0.0000,  0.0000)
   5 Na     9.127926    9.492149    4.829169    ( 0.0000,  0.0000,  0.0000)

Unit cell:
           periodic     x           y           z      points  spacing
  1. axis:    no    16.000000    0.000000    0.000000    64     0.2500
  2. axis:    no     0.000000   16.000000    0.000000    64     0.2500
  3. axis:    no     0.000000    0.000000   16.000000    64     0.2500

  Lengths:  16.000000  16.000000  16.000000
  Angles:   90.000000  90.000000  90.000000

Effective grid spacing dv^(1/3) = 0.2500

                     log10-error:    total        iterations:
           time      wfs    density  energy       fermi  poisson
iter:   1  21:10:31          +inf    -5.515192    7      1      
iter:   2  21:10:32         -0.38    -5.062297    4      1      
iter:   3  21:10:33         -0.60    -4.929080    4      1      
iter:   4  21:10:34         -0.89    -4.892530    3      1      
iter:   5  21:10:35         -1.56    -4.891052    2      1      
iter:   6  21:10:35         -1.77    -4.890122    2      1      
iter:   7  21:10:36         -2.42    -4.890094    1      1      
iter:   8  21:10:37         -2.71    -4.890090    1      1      
iter:   9  21:10:38         -2.94    -4.890089    1      1      
iter:  10  21:10:39         -3.27    -4.890089    1      1      
iter:  11  21:10:40         -3.47    -4.890089    1      1      
iter:  12  21:10:41         -3.84    -4.890089    1      1      
iter:  13  21:10:42         -4.06    -4.890089    1      1      

Converged after 13 iterations.

Dipole moment: (-0.084455, 0.109848, 0.003123) |e|*Ang

Energy contributions relative to reference atoms: (reference = -26392.251304)

Kinetic:        +20.334085
Potential:      -17.904019
External:        +0.000000
XC:              -7.345576
Entropy (-ST):   -0.000008
Local:           +0.025425
--------------------------
Free energy:     -4.890093
Extrapolated:    -4.890089

Fermi level: -2.39262

 Band  Eigenvalues  Occupancy
    0     -4.35143    2.00000
    1     -3.07160    2.00000
    2     -3.06769    2.00000
    3     -1.74844    0.00001
    4     -1.55102    0.00000
    5     -1.54791    0.00000
    6      1.92046    0.00000
    7      1.92729    0.00000
    8      2.18251    0.00000
    9      3.26634    0.00000

Gap: 1.319 eV
Transition (v -> c):
  (s=0, k=0, n=2, [0.00, 0.00, 0.00]) -> (s=0, k=0, n=3, [0.00, 0.00, 0.00])
Timing:                                       incl.     excl.
--------------------------------------------------------------------
Basic WFS set positions:                      0.004     0.002   0.0% |
 Redistribute:                                0.002     0.002   0.0% |
Basis functions set positions:                0.169     0.169   0.2% |
Forces:                                       0.842     0.179   0.2% |
 LCAO forces:                                 0.663     0.001   0.0% |
  Atomic Hamiltonian force:                   0.003     0.003   0.0% |
  Initial:                                    0.000     0.000   0.0% |
   Get density matrix:                        0.000     0.000   0.0% |
  Paw correction:                             0.002     0.002   0.0% |
  Potential:                                  0.611     0.611   0.8% |
  TCI derivative:                             0.046     0.046   0.1% |
  Wait for sum:                               0.000     0.000   0.0% |
LCAO WFS Initialize:                          5.193     0.099   0.1% |
 Density initialized from wave functions:     0.799     0.459   0.6% |
  Calculate density matrix:                   0.001     0.001   0.0% |
  Construct density:                          0.339     0.339   0.5% |
  Symmetrize density:                         0.000     0.000   0.0% |
 Hamiltonian:                                 4.295     0.001   0.0% |
  Atomic:                                     0.454     0.007   0.0% |
   XC Correction:                             0.447     0.447   0.6% |
  Calculate atomic Hamiltonians:              0.039     0.039   0.1% |
  Communicate:                                0.000     0.000   0.0% |
  Hartree integrate/restrict:                 0.285     0.285   0.4% |
  Initialize Hamiltonian:                     0.000     0.000   0.0% |
  Poisson:                                    1.550     0.092   0.1% |
   Communicate bwd 0:                         0.185     0.185   0.3% |
   Communicate bwd 1:                         0.115     0.115   0.2% |
   Communicate fwd 0:                         0.175     0.175   0.2% |
   Communicate fwd 1:                         0.188     0.188   0.3% |
   fft:                                       0.233     0.233   0.3% |
   fft2:                                      0.562     0.562   0.8% |
  XC 3D grid:                                 1.925     1.925   2.6% ||
  vbar:                                       0.041     0.041   0.1% |
P tci:                                        0.072     0.072   0.1% |
Redistribute:                                 0.004     0.004   0.0% |
SCF-cycle:                                   63.021     0.042   0.1% |
 Density:                                    10.541     0.002   0.0% |
  Atomic density matrices:                    0.065     0.065   0.1% |
  Mix:                                        5.817     5.817   8.0% |--|
  Multipole moments:                          0.016     0.016   0.0% |
  Normalize:                                  0.026     0.026   0.0% |
  Pseudo density:                             4.615     0.097   0.1% |
   Calculate density matrix:                  0.004     0.004   0.0% |
   Construct density:                         4.512     4.512   6.2% |-|
   Symmetrize density:                        0.002     0.002   0.0% |
 Hamiltonian:                                47.955     0.010   0.0% |
  Atomic:                                     5.057     0.072   0.1% |
   XC Correction:                             4.986     4.986   6.9% |--|
  Calculate atomic Hamiltonians:              0.451     0.451   0.6% |
  Communicate:                                0.001     0.001   0.0% |
  Hartree integrate/restrict:                 3.300     3.300   4.5% |-|
  Poisson:                                   17.195     0.993   1.4% ||
   Communicate bwd 0:                         2.091     2.091   2.9% ||
   Communicate bwd 1:                         1.299     1.299   1.8% ||
   Communicate fwd 0:                         1.819     1.819   2.5% ||
   Communicate fwd 1:                         2.109     2.109   2.9% ||
   fft:                                       2.620     2.620   3.6% ||
   fft2:                                      6.265     6.265   8.6% |--|
  XC 3D grid:                                21.529    21.529  29.6% |-----------|
  vbar:                                       0.412     0.412   0.6% |
 LCAO eigensolver:                            4.483     0.008   0.0% |
  Calculate projections:                      0.004     0.004   0.0% |
  DenseAtomicCorrection:                      0.022     0.022   0.0% |
  Distribute overlap matrix:                  0.002     0.002   0.0% |
  Orbital Layouts:                            0.024     0.024   0.0% |
  Potential matrix:                           4.423     4.423   6.1% |-|
ST tci:                                       0.022     0.022   0.0% |
Set symmetry:                                 0.001     0.001   0.0% |
TCI: Evaluate splines:                        0.021     0.021   0.0% |
mktci:                                        0.008     0.008   0.0% |
Other:                                        3.410     3.410   4.7% |-|
--------------------------------------------------------------------
Total:                                                 72.768 100.0%

Memory usage: 394.44 MiB
Date: Wed Feb  5 21:10:42 2020
