
  ___ ___ ___ _ _ _  
 |   |   |_  | | | | 
 | | | | | . | | | | 
 |__ |  _|___|_____|  19.8.1
 |___|_|             

User:   holmins@hebbe08-3
Date:   Tue Feb 25 18:51:21 2020
Arch:   x86_64
Pid:    10731
Python: 3.7.2
gpaw:   /apps/Hebbe7/software/MPI/intel/2019.1.144-GCC-8.2.0-2.31.1/impi/2018.4.274/GPAW/19.8.1-Python-3.7.2/lib/python3.7/site-packages/gpaw
_gpaw:  /apps/Hebbe7/software/MPI/intel/2019.1.144-GCC-8.2.0-2.31.1/impi/2018.4.274/GPAW/19.8.1-Python-3.7.2/bin/
        gpaw-python
ase:    /apps/Hebbe7/software/MPI/intel/2019.1.144-GCC-8.2.0-2.31.1/impi/2018.4.274/ASE/3.18.0-Python-3.7.2/lib/python3.7/site-packages/ase (version 3.18.0)
numpy:  /apps/Hebbe7/software/MPI/intel/2019.1.144-GCC-8.2.0-2.31.1/impi/2018.4.274/SciPy-bundle/2019.03/lib/python3.7/site-packages/numpy (version 1.16.2)
scipy:  /apps/Hebbe7/software/MPI/intel/2019.1.144-GCC-8.2.0-2.31.1/impi/2018.4.274/SciPy-bundle/2019.03/lib/python3.7/site-packages/scipy (version 1.2.1)
libxc:  4.3.4
units:  Angstrom and eV
cores:  1

Reading from Na_gs_110bands.gpw
Read dipole, energy, free_energy
Reading input parameters:
  convergence: {bands: -10,
                density: 0.0001,
                eigenstates: 4e-08,
                energy: 0.0005,
                forces: inf}
  eigensolver: cg
  fixdensity: True
  h: 0.3
  nbands: 110
  setups: {Na: 1}

Initialize ...

Na-setup:
  name: Sodium
  id: fa5c50181d04022fed15b2593599c257
  Z: 11
  valence: 1
  core: 10
  charge: 0.0
  file: /apps/Common/Core/GPAW-setups/0.9.20000/Na.1.LDA.gz
  compensation charges: gauss, rc=0.43, lmax=2
  cutoffs: 2.36(filt), 3.60(core),
  valence states:
                energy  radius
    3s(1.00)    -2.819   1.349
    3p(0.00)    -0.774   1.349
    *s          24.392   1.349

  Using partial waves for Na as LCAO basis

Reference energy: -35189.668405

Spin-paired calculation

Occupation numbers:
  Fixed Fermi level
  Fermi-Dirac: width=0.0000 eV

Convergence criteria:
  Maximum total energy change: 0.0005 eV / electron
  Maximum integral of absolute density change: 0.0001 electrons
  Maximum integral of absolute eigenstate change: 4e-08 eV^2
  Maximum number of iterations: 333

Symmetries present (total): 1

  ( 1  0  0)
  ( 0  1  0)
  ( 0  0  1)

1 k-point (Gamma)
1 k-point in the irreducible part of the Brillouin zone
       k-points in crystal coordinates                weights
   0:     0.00000000    0.00000000    0.00000000          1/1

Wave functions: Uniform real-space grid
  Kinetic energy operator: 6*3+1=19 point O(h^6) finite-difference Laplacian
  ScaLapack parameters: grid=1x1, blocksize=None
  Wavefunction extrapolation:
    Improved wavefunction reuse through dual PAW basis 

Eigensolver
   CG(niter=4, rtol=3.0e-01) 

Densities:
  Coarse grid: 72*64*64 grid
  Fine grid: 144*128*128 grid
  Total Charge: 0.000000 

No density mixing

Hamiltonian:
  XC and Coulomb potentials evaluated on a 144*128*128 grid
  Using the LDA Exchange-Correlation functional
  Interpolation: tri-quintic (5. degree polynomial)
  Poisson solver: FastPoissonSolver using
    6*3+1=19 point O(h^6) finite-difference Laplacian stencil;
    FFT axes: [];
    FST axes: [1, 2, 0].
 

Memory estimate:
  Process memory now: 309.42 MiB
  Calculator: 606.00 MiB
    Density: 83.32 MiB
      Arrays: 57.09 MiB
      Localized functions: 13.33 MiB
      Mixer: 12.90 MiB
    Hamiltonian: 38.31 MiB
      Arrays: 37.34 MiB
      XC: 0.00 MiB
      Poisson: 0.00 MiB
      vbar: 0.96 MiB
    Wavefunctions: 484.38 MiB
      Arrays psit_nG: 236.50 MiB
      Eigensolver: 247.25 MiB
      Projections: 0.03 MiB
      Projectors: 0.60 MiB

Total number of cores used: 1

Number of atoms: 8
Number of atomic orbitals: 32
Number of bands in calculation: 110
Bands to converge: -10 lowest bands
Number of valence electrons: 8

... initialized

loading lr
discrete_spectrum
dump_data
getting stuff
making fx
Timing:           incl.     excl.
----------------------------------------
Redistribute:     0.000     0.000   0.0% |
Set symmetry:     0.001     0.001   0.0% |
Other:            5.420     5.420 100.0% |---------------------------------------|
----------------------------------------
Total:                      5.421 100.0%

Timing:                 incl.     excl.
----------------------------------------------
header:                 0.002     0.002   0.4% |
init_kss:               0.008     0.008   1.5% ||
init_obj:               0.019     0.019   3.6% ||
name:                   0.003     0.003   0.6% |
read diagonalized:      0.039     0.005   1.0% |
 read eigenvectors:     0.034     0.034   6.5% |--|
Other:                  0.453     0.453  86.4% |----------------------------------|
----------------------------------------------
Total:                            0.524 100.0%

Date: Tue Feb 25 18:51:26 2020
