8
Lattice="16.0 0.0 0.0 0.0 16.0 0.0 0.0 0.0 16.0" Properties=species:S:1:pos:R:3:forces:R:3 relax_id=29 confid=9 unique_id=5ea7ab2c4b0c84ab392a80cef827cbea energy=-7.28116172808681 pbc="F F F"
Na       8.30685036       7.02990656       6.25286879      -0.01168418      -0.00045362      -0.00060082
Na       9.64231913       9.94943890       9.63488781      -0.00452959      -0.00126900       0.00039452
Na       7.60099452       6.99532950       9.78029578       0.00049568      -0.00093238      -0.00101103
Na      10.68075214       9.49912892       6.38627289       0.00327007      -0.00328673       0.00784888
Na       7.60959593      10.52739061       6.73361863       0.00159154      -0.00100167      -0.00238223
Na       5.38465812       7.98926883       7.35268140      -0.00006564      -0.00295271      -0.00337557
Na      10.67326607       6.79144332       8.72097040       0.00326365       0.00905949      -0.00097305
Na       6.39305095      10.20604662       9.92742660       0.00848450       0.00106305       0.00182197
