
  ___ ___ ___ _ _ _  
 |   |   |_  | | | | 
 | | | | | . | | | | 
 |__ |  _|___|_____|  19.8.1
 |___|_|             

User:   holmins@hebbe28-4
Date:   Thu Feb 27 12:57:02 2020
Arch:   x86_64
Pid:    1608
Python: 3.7.2
gpaw:   /apps/Hebbe7/software/MPI/intel/2019.1.144-GCC-8.2.0-2.31.1/impi/2018.4.274/GPAW/19.8.1-Python-3.7.2/lib/python3.7/site-packages/gpaw
_gpaw:  /apps/Hebbe7/software/MPI/intel/2019.1.144-GCC-8.2.0-2.31.1/impi/2018.4.274/GPAW/19.8.1-Python-3.7.2/bin/
        gpaw-python
ase:    /apps/Hebbe7/software/MPI/intel/2019.1.144-GCC-8.2.0-2.31.1/impi/2018.4.274/ASE/3.18.0-Python-3.7.2/lib/python3.7/site-packages/ase (version 3.18.0)
numpy:  /apps/Hebbe7/software/MPI/intel/2019.1.144-GCC-8.2.0-2.31.1/impi/2018.4.274/SciPy-bundle/2019.03/lib/python3.7/site-packages/numpy (version 1.16.2)
scipy:  /apps/Hebbe7/software/MPI/intel/2019.1.144-GCC-8.2.0-2.31.1/impi/2018.4.274/SciPy-bundle/2019.03/lib/python3.7/site-packages/scipy (version 1.2.1)
libxc:  4.3.4
units:  Angstrom and eV
cores:  4

Reading from Na_gs_0bands.gpw
Read dipole, energy, free_energy
Reading input parameters:
  h: 0.3
  nbands: 0
  setups: {Na: 1}

Initialize ...

Na-setup:
  name: Sodium
  id: fa5c50181d04022fed15b2593599c257
  Z: 11
  valence: 1
  core: 10
  charge: 0.0
  file: /apps/Common/Core/GPAW-setups/0.9.20000/Na.1.LDA.gz
  compensation charges: gauss, rc=0.43, lmax=2
  cutoffs: 2.36(filt), 3.60(core),
  valence states:
                energy  radius
    3s(1.00)    -2.819   1.349
    3p(0.00)    -0.774   1.349
    *s          24.392   1.349

  Using partial waves for Na as LCAO basis

Reference energy: -35189.668405

Spin-paired calculation

Occupation numbers:
  Fermi-Dirac: width=0.0000 eV

Convergence criteria:
  Maximum total energy change: 0.0005 eV / electron
  Maximum integral of absolute density change: 0.0001 electrons
  Maximum integral of absolute eigenstate change: 4e-08 eV^2
  Maximum number of iterations: 333

Symmetries present (total): 1

  ( 1  0  0)
  ( 0  1  0)
  ( 0  0  1)

1 k-point (Gamma)
1 k-point in the irreducible part of the Brillouin zone
       k-points in crystal coordinates                weights
   0:     0.00000000    0.00000000    0.00000000          1/1

Wave functions: Uniform real-space grid
  Kinetic energy operator: 6*3+1=19 point O(h^6) finite-difference Laplacian
  ScaLapack parameters: grid=1x1, blocksize=None
  Wavefunction extrapolation:
    Wavefunctions kept unchanged if atoms move 

Eigensolver
   Davidson(niter=2, smin=None, normalize=True) 

Densities:
  Coarse grid: 72*64*64 grid
  Fine grid: 144*128*128 grid
  Total Charge: 0.000000 

No density mixing

Hamiltonian:
  XC and Coulomb potentials evaluated on a 144*128*128 grid
  Using the LDA Exchange-Correlation functional
  Interpolation: tri-quintic (5. degree polynomial)
  Poisson solver: FastPoissonSolver using
    6*3+1=19 point O(h^6) finite-difference Laplacian stencil;
    FFT axes: [];
    FST axes: [1, 2, 0].
 

Memory estimate:
  Process memory now: 137.12 MiB
  Calculator: 40.52 MiB
    Density: 17.38 MiB
      Arrays: 14.05 MiB
      Localized functions: 3.33 MiB
      Mixer: 0.00 MiB
    Hamiltonian: 9.43 MiB
      Arrays: 9.19 MiB
      XC: 0.00 MiB
      Poisson: 0.00 MiB
      vbar: 0.24 MiB
    Wavefunctions: 13.71 MiB
      Arrays psit_nG: 4.17 MiB
      Eigensolver: 9.39 MiB
      Projections: 0.00 MiB
      Projectors: 0.15 MiB

Total number of cores used: 4
Domain decomposition: 2 x 1 x 2

Number of atoms: 8
Number of atomic orbitals: 32
Number of bands in calculation: 4
Bands to converge: occupied states only
Number of valence electrons: 8

... initialized

Initializing position-dependent things.

Density initialized from wave functions
             .---------------------------------------------------.  
            /|                                                   |  
           / |                                                   |  
          /  |                                                   |  
         /   |                                                   |  
        /    |                                                   |  
       /     |                                                   |  
      /      |                                                   |  
     /       |                                                   |  
    /        |                                                   |  
   /         |                                                   |  
  /          |                                                   |  
 *           |                                                   |  
 |           |                                                   |  
 |           |                                                   |  
 |           |                Na      Na                         |  
 |           |                                                   |  
 |           |                 Na                                |  
 |           |                        Na                         |  
 |           |            Na     Na                              |  
 |           |                          Na                       |  
 |           |                   Na                              |  
 |           |                                                   |  
 |           |                                                   |  
 |           .---------------------------------------------------.  
 |          /                                                   /   
 |         /                                                   /    
 |        /                                                   /     
 |       /                                                   /      
 |      /                                                   /       
 |     /                                                   /        
 |    /                                                   /         
 |   /                                                   /          
 |  /                                                   /           
 | /                                                   /            
 |/                                                   /             
 *---------------------------------------------------*              

Positions:
   0 Na    10.922192    8.238463    8.000000    ( 0.0000,  0.0000,  0.0000)
   1 Na    12.257661   11.157996   11.382019    ( 0.0000,  0.0000,  0.0000)
   2 Na    10.216336    8.203886   11.527427    ( 0.0000,  0.0000,  0.0000)
   3 Na    13.296094   10.707686    8.133404    ( 0.0000,  0.0000,  0.0000)
   4 Na    10.224938   11.735947    8.480750    ( 0.0000,  0.0000,  0.0000)
   5 Na     8.000000    9.197826    9.099813    ( 0.0000,  0.0000,  0.0000)
   6 Na    13.288608    8.000000   10.468102    ( 0.0000,  0.0000,  0.0000)
   7 Na     9.008393   11.414603   11.674558    ( 0.0000,  0.0000,  0.0000)



------------------------------------------
  Time-propagation TDDFT                  
------------------------------------------

Charge epsilon:  1e-05
Solver:  CSCG
Preconditioner:  None
Propagator:  SICN
States per processor =  4
Delta kick =  [0.0, 0.0, 1e-05]

Starting time:    0.00 as
Time step:       30.00 as

                        Simulation     Total         log10     Iterations:
             Time          time        Energy (eV)   Norm      Propagator
iter:   0  12:57:05        0.00       -7.937914     -14.5          0
iter:  10  12:57:38      300.00       -7.937915     -15.4         64
iter:  20  12:58:08      600.00       -7.937914     -15.1         63
iter:  30  12:58:38      900.00       -7.937914     -14.3         56
iter:  40  12:59:07     1200.00       -7.937914     -14.5         56
iter:  50  12:59:36     1500.00       -7.937914     -14.6         56
iter:  60  13:00:05     1800.00       -7.937914     -14.3         56
iter:  70  13:00:34     2100.00       -7.937914     -14.9         56
iter:  80  13:01:03     2400.00       -7.937914     -14.6         56
iter:  90  13:01:32     2700.00       -7.937914     -14.6         56
Writing to na_td.gpw (mode='all')

Wrote restart file.
100  iterations done. Current time is  2999.9999999999986  as.
iter: 100  13:02:02     3000.00       -7.937914     -14.5         63
iter: 110  13:02:33     3300.00       -7.937914     -15.7         60
iter: 120  13:03:03     3600.00       -7.937914     -15.7         55
iter: 130  13:03:34     3900.00       -7.937914     -14.5         63
iter: 140  13:04:03     4200.00       -7.937914     -14.9         56
iter: 150  13:04:32     4500.00       -7.937914     -15.7         56
iter: 160  13:05:03     4800.00       -7.937914     -14.7         56
iter: 170  13:05:31     5100.00       -7.937914     -14.3         55
iter: 180  13:06:01     5400.00       -7.937913     -15.7         56
iter: 190  13:06:30     5700.00       -7.937914     -14.6         56
Writing to na_td.gpw (mode='all')

Wrote restart file.
200  iterations done. Current time is  6000.00000000003  as.
iter: 200  13:06:59     6000.00       -7.937914     -14.8         55
iter: 210  13:07:30     6300.00       -7.937914     -14.5         62
iter: 220  13:08:00     6600.00       -7.937914     -15.8         56
iter: 230  13:08:31     6900.00       -7.937913     -14.8         63
iter: 240  13:09:00     7200.00       -7.937914     -15.1         56
iter: 250  13:09:29     7500.00       -7.937913     -14.2         55
iter: 260  13:09:58     7800.00       -7.937913     -14.6         56
iter: 270  13:10:28     8100.00       -7.937913     -15.2         56
iter: 280  13:10:57     8400.00       -7.937913     -15.6         63
iter: 290  13:11:27     8700.00       -7.937913     -15.8         56
Writing to na_td.gpw (mode='all')

Wrote restart file.
300  iterations done. Current time is  9000.0  as.
iter: 300  13:11:56     9000.00       -7.937914     -15.3         55
iter: 310  13:12:26     9300.00       -7.937914     -14.4         60
iter: 320  13:12:57     9600.00       -7.937914     -15.4         57
iter: 330  13:13:27     9900.00       -7.937914     -14.8         62
iter: 340  13:13:58    10200.00       -7.937914     -14.6         55
iter: 350  13:14:27    10500.00       -7.937913     -15.8         55
iter: 360  13:14:56    10800.00       -7.937914     -14.5         57
iter: 370  13:15:25    11100.00       -7.937913     -15.7         56
iter: 380  13:15:54    11400.00       -7.937914     -14.6         55
iter: 390  13:16:24    11700.00       -7.937914     -14.6         60
Writing to na_td.gpw (mode='all')

Wrote restart file.
400  iterations done. Current time is  11999.999999999964  as.
iter: 400  13:16:53    12000.00       -7.937914     -15.6         56
iter: 410  13:17:22    12300.00       -7.937914     -14.3         56
iter: 420  13:17:53    12600.00       -7.937914     -14.9         56
iter: 430  13:18:22    12900.00       -7.937914     -14.4         55
iter: 440  13:18:52    13200.00       -7.937914     -14.9         60
iter: 450  13:19:22    13500.00       -7.937914     -14.4         56
iter: 460  13:19:51    13800.00       -7.937914     -15.0         55
iter: 470  13:20:20    14100.00       -7.937914     -14.5         56
iter: 480  13:20:49    14400.00       -7.937914     -15.2         56
iter: 490  13:21:18    14700.00       -7.937915     -15.0         57
Writing to na_td.gpw (mode='all')

Wrote restart file.
500  iterations done. Current time is  15000.000000000047  as.
iter: 500  13:21:49    15000.00       -7.937915     -15.4         60
iter: 510  13:22:17    15300.00       -7.937915     -14.5         55
iter: 520  13:22:48    15600.00       -7.937914     -15.0         56
iter: 530  13:23:18    15900.00       -7.937915     -15.3         55
iter: 540  13:23:47    16200.00       -7.937915     -14.5         55
iter: 550  13:24:17    16500.00       -7.937914     -15.2         57
iter: 560  13:24:46    16800.00       -7.937914     -15.0         56
iter: 570  13:25:15    17100.00       -7.937915     -15.1         57
iter: 580  13:25:45    17400.00       -7.937915     -14.6         60
iter: 590  13:26:14    17700.00       -7.937915     -15.1         55
Writing to na_td.gpw (mode='all')

Wrote restart file.
600  iterations done. Current time is  18000.00000000015  as.
iter: 600  13:26:45    18000.00       -7.937914     -14.3         59
iter: 610  13:27:14    18300.00       -7.937914     -14.4         56
iter: 620  13:27:44    18600.00       -7.937914     -14.7         58
iter: 630  13:28:13    18900.00       -7.937914     -15.2         56
iter: 640  13:28:42    19200.00       -7.937914     -15.1         56
iter: 650  13:29:13    19500.00       -7.937914     -15.6         60
iter: 660  13:29:42    19800.00       -7.937914     -14.6         56
iter: 670  13:30:12    20100.00       -7.937915     -14.9         57
iter: 680  13:30:41    20400.00       -7.937915     -14.9         57
iter: 690  13:31:11    20700.00       -7.937914     -14.5         56
Writing to na_td.gpw (mode='all')

Wrote restart file.
700  iterations done. Current time is  21000.00000000025  as.
iter: 700  13:31:41    21000.00       -7.937914     -15.1         57
iter: 710  13:32:11    21300.00       -7.937914     -16.0         56
iter: 720  13:32:40    21600.00       -7.937915     -15.4         57
iter: 730  13:33:10    21900.00       -7.937914     -14.7         57
iter: 740  13:33:40    22200.00       -7.937914     -15.4         56
iter: 750  13:34:10    22500.00       -7.937914     -14.6         60
iter: 760  13:34:39    22800.00       -7.937914     -14.7         56
iter: 770  13:35:09    23100.00       -7.937914     -15.1         56
iter: 780  13:35:38    23400.00       -7.937914     -14.5         56
iter: 790  13:36:07    23700.00       -7.937914     -14.8         55
Writing to na_td.gpw (mode='all')

Wrote restart file.
800  iterations done. Current time is  24000.000000000353  as.
iter: 800  13:36:36    24000.00       -7.937914     -14.3         57
iter: 810  13:37:05    24300.00       -7.937914     -14.5         55
iter: 820  13:37:34    24600.00       -7.937914     -14.5         55
iter: 830  13:38:04    24900.00       -7.937914     -15.1         59
iter: 840  13:38:34    25200.00       -7.937914     -14.6         56
iter: 850  13:39:03    25500.00       -7.937914     -14.8         59
iter: 860  13:39:33    25800.00       -7.937914     -14.6         56
iter: 870  13:40:02    26100.00       -7.937914     -15.0         60
iter: 880  13:40:32    26400.00       -7.937914     -14.8         56
iter: 890  13:41:01    26700.00       -7.937914     -14.5         55
Writing to na_td.gpw (mode='all')

Wrote restart file.
900  iterations done. Current time is  27000.00000000045  as.
iter: 900  13:41:30    27000.00       -7.937914     -14.6         56
iter: 910  13:41:59    27300.00       -7.937914     -15.6         56
iter: 920  13:42:28    27600.00       -7.937914     -14.7         56
iter: 930  13:42:57    27900.00       -7.937914     -14.6         56
iter: 940  13:43:27    28200.00       -7.937914     -15.1         56
iter: 950  13:43:56    28500.00       -7.937914     -15.7         56
iter: 960  13:44:25    28800.00       -7.937914     -14.9         56
iter: 970  13:44:54    29100.00       -7.937914     -15.0         56
iter: 980  13:45:23    29400.00       -7.937914     -14.5         56
iter: 990  13:45:53    29700.00       -7.937914     -15.1         56
Writing to na_td.gpw (mode='all')

Wrote restart file.
1000  iterations done. Current time is  30000.000000000553  as.
iter: 1000  13:46:22    30000.00       -7.937914     -14.6         55
iter: 1010  13:46:52    30300.00       -7.937914     -15.1         55
iter: 1020  13:47:21    30600.00       -7.937915     -14.4         56
iter: 1030  13:47:50    30900.00       -7.937915     -15.2         56
iter: 1040  13:48:20    31200.00       -7.937915     -14.5         56
iter: 1050  13:48:49    31500.00       -7.937915     -14.5         56
iter: 1060  13:49:18    31800.00       -7.937914     -14.6         56
iter: 1070  13:49:47    32100.00       -7.937914     -14.4         55
iter: 1080  13:50:16    32400.00       -7.937914     -14.5         56
iter: 1090  13:50:45    32700.00       -7.937914     -14.9         56
Writing to na_td.gpw (mode='all')

Wrote restart file.
1100  iterations done. Current time is  33000.000000000655  as.
iter: 1100  13:51:15    33000.00       -7.937914     -14.6         56
iter: 1110  13:51:44    33300.00       -7.937914     -14.8         56
iter: 1120  13:52:13    33600.00       -7.937914     -14.5         56
iter: 1130  13:52:42    33900.00       -7.937914     -14.9         56
iter: 1140  13:53:11    34200.00       -7.937913     -14.6         57
iter: 1150  13:53:41    34500.00       -7.937913     -14.3         57
iter: 1160  13:54:09    34800.00       -7.937913     -14.4         56
iter: 1170  13:54:39    35100.00       -7.937913     -14.3         60
iter: 1180  13:55:08    35400.00       -7.937913     -15.1         56
iter: 1190  13:55:37    35700.00       -7.937913     -14.3         56
Writing to na_td.gpw (mode='all')

Wrote restart file.
1200  iterations done. Current time is  36000.00000000076  as.
iter: 1200  13:56:06    36000.00       -7.937913     -14.5         56
iter: 1210  13:56:35    36300.00       -7.937913     -14.8         56
iter: 1220  13:57:04    36600.00       -7.937913     -15.5         56
iter: 1230  13:57:33    36900.00       -7.937913     -15.0         56
iter: 1240  13:58:02    37200.00       -7.937913     -14.9         56
iter: 1250  13:58:31    37500.00       -7.937913     -14.9         56
iter: 1260  13:59:00    37800.00       -7.937913     -16.0         56
iter: 1270  13:59:29    38100.00       -7.937913     -14.3         56
iter: 1280  13:59:58    38400.00       -7.937913     -14.5         56
iter: 1290  14:00:27    38700.00       -7.937913     -14.5         56
Writing to na_td.gpw (mode='all')

Wrote restart file.
1300  iterations done. Current time is  39000.00000000086  as.
iter: 1300  14:00:56    39000.00       -7.937913     -15.3         57
iter: 1310  14:01:25    39300.00       -7.937913     -15.5         57
iter: 1320  14:01:54    39600.00       -7.937913     -14.7         56
iter: 1330  14:02:23    39900.00       -7.937912     -15.1         56
iter: 1340  14:02:52    40200.00       -7.937912     -14.3         56
iter: 1350  14:03:21    40500.00       -7.937912     -14.7         56
iter: 1360  14:03:52    40800.00       -7.937912     -14.8         57
iter: 1370  14:04:21    41100.00       -7.937912     -15.7         57
iter: 1380  14:04:50    41400.00       -7.937912     -15.7         56
iter: 1390  14:05:20    41700.00       -7.937911     -15.2         57
Writing to na_td.gpw (mode='all')

Wrote restart file.
1400  iterations done. Current time is  42000.00000000096  as.
iter: 1400  14:05:49    42000.00       -7.937911     -14.7         60
iter: 1410  14:06:19    42300.00       -7.937911     -14.4         56
iter: 1420  14:06:48    42600.00       -7.937911     -14.4         56
iter: 1430  14:07:17    42900.00       -7.937911     -14.3         56
iter: 1440  14:07:46    43200.00       -7.937911     -14.9         56
iter: 1450  14:08:16    43500.00       -7.937911     -14.9         60
iter: 1460  14:08:46    43800.00       -7.937911     -14.7         56
iter: 1470  14:09:15    44100.00       -7.937911     -14.4         56
iter: 1480  14:09:45    44400.00       -7.937911     -14.6         61
iter: 1490  14:10:15    44700.00       -7.937911     -14.4         58
Writing to na_td.gpw (mode='all')

Wrote restart file.
1500  iterations done. Current time is  45000.00000000106  as.
Writing to na_td.gpw (mode='all')

Calculating photoabsorption spectrum from file "na_dm.dat"
Sinc contamination 0.00000000
Calculated photoabsorption spectrum saved to file "na_spectrum_z.dat"
Timing:                                      incl.     excl.
-------------------------------------------------------------------
Apply approximate inverse overlap:           0.002     0.002   0.0% |
Apply time-dependent operators:              0.019     0.019   0.0% |
CSCG:                                        0.092     0.033   0.0% |
 Apply time-dependent operators:             0.056     0.056   0.0% |
 Solve TDDFT preconditioner:                 0.003     0.003   0.0% |
Density initialized from wave functions:     0.024     0.024   0.0% |
 Symmetrize density:                         0.000     0.000   0.0% |
Hamiltonian:                                 0.292     0.000   0.0% |
 Atomic:                                     0.028     0.003   0.0% |
  XC Correction:                             0.025     0.025   0.0% |
 Calculate atomic Hamiltonians:              0.006     0.006   0.0% |
 Communicate:                                0.002     0.002   0.0% |
 Hartree integrate/restrict:                 0.010     0.010   0.0% |
 Poisson:                                    0.151     0.009   0.0% |
  Communicate bwd 0:                         0.012     0.012   0.0% |
  Communicate bwd 1:                         0.042     0.042   0.0% |
  Communicate fwd 0:                         0.043     0.043   0.0% |
  Communicate fwd 1:                         0.012     0.012   0.0% |
  fft:                                       0.013     0.013   0.0% |
  fft2:                                      0.021     0.021   0.0% |
 XC 3D grid:                                 0.093     0.093   0.0% |
 vbar:                                       0.002     0.002   0.0% |
Propagate:                                4418.806    45.651   1.0% |
 Apply approximate inverse overlap:          7.872     7.872   0.2% |
 Apply time-dependent operators:            78.008    78.008   1.8% ||
 CSCG:                                    3334.688   961.719  21.7% |--------|
  Apply time-dependent operators:         2275.938  2275.938  51.5% |--------------------|
  Solve TDDFT preconditioner:               97.031    97.031   2.2% ||
 Density:                                    3.592     0.004   0.0% |
  Atomic density matrices:                   0.135     0.135   0.0% |
  Mix:                                       3.262     3.262   0.1% |
  Multipole moments:                         0.021     0.021   0.0% |
  Pseudo density:                            0.169     0.167   0.0% |
   Symmetrize density:                       0.002     0.002   0.0% |
 Hamiltonian:                               41.643     0.019   0.0% |
  Atomic:                                    3.793     0.116   0.0% |
   XC Correction:                            3.676     3.676   0.1% |
  Calculate atomic Hamiltonians:             0.695     0.695   0.0% |
  Communicate:                               0.070     0.070   0.0% |
  Hartree integrate/restrict:                1.809     1.809   0.0% |
  Poisson:                                  21.156     1.217   0.0% |
   Communicate bwd 0:                        1.438     1.438   0.0% |
   Communicate bwd 1:                        6.203     6.203   0.1% |
   Communicate fwd 0:                        5.783     5.783   0.1% |
   Communicate fwd 1:                        1.412     1.412   0.0% |
   fft:                                      1.947     1.947   0.0% |
   fft2:                                     3.156     3.156   0.1% |
  XC 3D grid:                               13.770    13.770   0.3% |
  vbar:                                      0.331     0.331   0.0% |
 Update time-dependent operators:          907.352     3.172   0.1% |
  Density:                                  72.322     0.076   0.0% |
   Atomic density matrices:                  2.726     2.726   0.1% |
   Mix:                                     65.597    65.597   1.5% ||
   Multipole moments:                        0.430     0.430   0.0% |
   Pseudo density:                           3.493     3.444   0.1% |
    Symmetrize density:                      0.049     0.049   0.0% |
  Hamiltonian:                             831.858     0.367   0.0% |
   Atomic:                                  75.862     2.373   0.1% |
    XC Correction:                          73.489    73.489   1.7% ||
   Calculate atomic Hamiltonians:           13.687    13.687   0.3% |
   Communicate:                              1.439     1.439   0.0% |
   Hartree integrate/restrict:              35.184    35.184   0.8% |
   Poisson:                                423.090    24.285   0.5% |
    Communicate bwd 0:                      28.718    28.718   0.6% |
    Communicate bwd 1:                     123.967   123.967   2.8% ||
    Communicate fwd 0:                     115.624   115.624   2.6% ||
    Communicate fwd 1:                      28.453    28.453   0.6% |
    fft:                                    39.013    39.013   0.9% |
    fft2:                                   63.029    63.029   1.4% ||
   XC 3D grid:                             275.565   275.565   6.2% |-|
   vbar:                                     6.664     6.664   0.2% |
Redistribute:                                0.001     0.001   0.0% |
Set symmetry:                                0.001     0.001   0.0% |
Update time-dependent operators:             0.001     0.001   0.0% |
Other:                                       2.650     2.650   0.1% |
-------------------------------------------------------------------
Total:                                              4421.887 100.0%

Memory usage: 193.89 MiB
Date: Thu Feb 27 14:10:44 2020
