
  ___ ___ ___ _ _ _  
 |   |   |_  | | | | 
 | | | | | . | | | | 
 |__ |  _|___|_____|  19.8.1
 |___|_|             

User:   erik@HP-OMEN
Date:   Fri Feb  7 15:16:02 2020
Arch:   x86_64
Pid:    2291
Python: 3.7.5
gpaw:   /home/erik/.local/lib/python3.7/site-packages/gpaw
_gpaw:  /home/erik/.local/lib/python3.7/site-packages/
        _gpaw.cpython-37m-x86_64-linux-gnu.so
ase:    /home/erik/anaconda3/lib/python3.7/site-packages/ase (version 3.19.0)
numpy:  /home/erik/anaconda3/lib/python3.7/site-packages/numpy (version 1.17.4)
scipy:  /home/erik/anaconda3/lib/python3.7/site-packages/scipy (version 1.3.2)
libxc:  3.0.0
units:  Angstrom and eV
cores:  1

Input parameters:
  basis: dzp
  h: 0.25
  mode: lcao
  nbands: 10
  occupations: {name: fermi-dirac,
                width: 0.05}
  setups: {Na: 1}

System changes: positions, numbers, cell, pbc, initial_charges, initial_magmoms 

Initialize ...

Na-setup:
  name: Sodium
  id: fa5c50181d04022fed15b2593599c257
  Z: 11
  valence: 1
  core: 10
  charge: 0.0
  file: /usr/bin/gpaw-setups-0.9.20000/Na.1.LDA.gz
  compensation charges: gauss, rc=0.43, lmax=2
  cutoffs: 2.36(filt), 3.60(core),
  valence states:
                energy  radius
    3s(1.00)    -2.819   1.349
    3p(0.00)    -0.774   1.349
    *s          24.392   1.349

  LCAO basis set for Na:
    Name: 1.dzp
    File: /usr/bin/gpaw-setups-0.9.20000/Na.1.dzp.basis.gz
    Number of radial functions: 3
    Number of spherical harmonics: 5
      l=0, rc=11.7656 Bohr: 3s-sz confined orbital
      l=0, rc=7.1094 Bohr: 3s-dz split-valence wave
      l=1, rc=11.7656 Bohr: p-type Gaussian polarization

Reference energy: -30790.959854

Spin-paired calculation

Occupation numbers:
  Fermi-Dirac: width=0.0500 eV

Convergence criteria:
  Maximum total energy change: 0.0005 eV / electron
  Maximum integral of absolute density change: 0.0001 electrons
  Maximum integral of absolute eigenstate change: 4e-08 eV^2
  Maximum number of iterations: 333

Symmetries present (total): 1

  ( 1  0  0)
  ( 0  1  0)
  ( 0  0  1)

1 k-point (Gamma)
1 k-point in the irreducible part of the Brillouin zone
       k-points in crystal coordinates                weights
   0:     0.00000000    0.00000000    0.00000000          1/1

Wave functions: LCAO
  Diagonalizer: Serial LAPACK
  Atomic Correction: dense with blas
  Datatype: float
 

Eigensolver
   LCAO using direct dense diagonalizer 

Densities:
  Coarse grid: 64*64*64 grid
  Fine grid: 128*128*128 grid
  Total Charge: 0.000000 

Density mixing:
  Method: separate
  Backend: pulay
  Linear mixing parameter: 0.25
  Mixing with 3 old densities
  No damping of long wave oscillations 

Hamiltonian:
  XC and Coulomb potentials evaluated on a 128*128*128 grid
  Using the LDA Exchange-Correlation functional
  Interpolation: tri-quintic (5. degree polynomial)
  Poisson solver: FastPoissonSolver using
    6*3+1=19 point O(h^6) finite-difference Laplacian stencil;
    FFT axes: [];
    FST axes: [0, 1, 2].
 

Memory estimate:
  Process memory now: 608.71 MiB
  Calculator: 132.36 MiB
    Density: 83.08 MiB
      Arrays: 50.70 MiB
      Localized functions: 20.93 MiB
      Mixer: 11.45 MiB
    Hamiltonian: 34.67 MiB
      Arrays: 33.16 MiB
      XC: 0.00 MiB
      Poisson: 0.00 MiB
      vbar: 1.51 MiB
    Wavefunctions: 14.61 MiB
      C [qnM]: 0.00 MiB
      S, T [2 x qmm]: 0.02 MiB
      P [aqMi]: 0.00 MiB
      BasisFunctions: 14.58 MiB
      Eigensolver: 0.00 MiB

Total number of cores used: 1

Number of atoms: 7
Number of atomic orbitals: 35
Number of bands in calculation: 10
Bands to converge: occupied states only
Number of valence electrons: 7

... initialized

Initializing position-dependent things.

Density initialized from atomic densities
           .--------------------------------------.  
          /|                                      |  
         / |                                      |  
        /  |                                      |  
       /   |                                      |  
      /    |                                      |  
     /     |                                      |  
    /      |                                      |  
   /       |                                      |  
  /        |                                      |  
 *         |                                      |  
 |         |                                      |  
 |         |                                      |  
 |         |           Na                         |  
 |         |       Na                             |  
 |         |               Na                     |  
 |         |                 Na                   |  
 |         |        Na                            |  
 |         |         Na                           |  
 |         |               Na                     |  
 |         .--------------------------------------.  
 |        /                                      /   
 |       /                                      /    
 |      /                                      /     
 |     /                                      /      
 |    /                                      /       
 |   /                                      /        
 |  /                                      /         
 | /                                      /          
 |/                                      /           
 *--------------------------------------*            

Positions:
   0 Na     5.745324    9.381726    4.758435    ( 0.0000,  0.0000,  0.0000)
   1 Na     6.236665    6.655848    6.830848    ( 0.0000,  0.0000,  0.0000)
   2 Na     4.735796    9.570700    7.984692    ( 0.0000,  0.0000,  0.0000)
   3 Na     7.039051    7.997305    9.894937    ( 0.0000,  0.0000,  0.0000)
   4 Na     9.543980    6.951453    7.859960    ( 0.0000,  0.0000,  0.0000)
   5 Na     8.718873    7.764184    4.696530    ( 0.0000,  0.0000,  0.0000)
   6 Na     8.077889   10.011585    7.251466    ( 0.0000,  0.0000,  0.0000)

Unit cell:
           periodic     x           y           z      points  spacing
  1. axis:    no    16.000000    0.000000    0.000000    64     0.2500
  2. axis:    no     0.000000   16.000000    0.000000    64     0.2500
  3. axis:    no     0.000000    0.000000   16.000000    64     0.2500

  Lengths:  16.000000  16.000000  16.000000
  Angles:   90.000000  90.000000  90.000000

Effective grid spacing dv^(1/3) = 0.2500

                     log10-error:    total        iterations:
           time      wfs    density  energy       fermi  poisson
iter:   1  15:16:06          +inf    -6.143981    1      1      
iter:   2  15:16:07         -0.66    -5.951877    31     1      
iter:   3  15:16:08         -0.90    -5.876450    34     1      
iter:   4  15:16:09         -1.47    -5.873499    3      1      
iter:   5  15:16:10         -2.32    -5.873477    2      1      
iter:   6  15:16:11         -2.49    -5.873459    2      1      
iter:   7  15:16:12         -2.83    -5.873453    2      1      
iter:   8  15:16:13         -3.30    -5.873452    2      1      
iter:   9  15:16:14         -3.56    -5.873452    2      1      
iter:  10  15:16:15         -3.84    -5.873452    1      1      
iter:  11  15:16:16         -4.00    -5.873452    1      1      

Converged after 11 iterations.

Dipole moment: (-0.001845, 0.001186, -0.002629) |e|*Ang

Energy contributions relative to reference atoms: (reference = -30790.959854)

Kinetic:        +25.386069
Potential:      -21.960148
External:        +0.000000
XC:              -9.301133
Entropy (-ST):   -0.069324
Local:           +0.036422
--------------------------
Free energy:     -5.908113
Extrapolated:    -5.873452

Fermi level: -2.62251

 Band  Eigenvalues  Occupancy
    0     -4.80941    2.00000
    1     -3.25748    1.99999
    2     -3.25166    1.99999
    3     -2.62251    1.00001
    4     -1.57314    0.00000
    5     -1.56965    0.00000
    6     -1.51944    0.00000
    7      1.02211    0.00000
    8      1.61130    0.00000
    9      1.62237    0.00000

Gap: 1.049 eV
Transition (v -> c):
  (s=0, k=0, n=3, [0.00, 0.00, 0.00]) -> (s=0, k=0, n=4, [0.00, 0.00, 0.00])
Writing to WFbest.gpw (mode='all')

Timing:                              incl.     excl.
-----------------------------------------------------------
Basic WFS set positions:             0.000     0.000   0.0% |
Basis functions set positions:       0.032     0.032   0.2% |
LCAO WFS Initialize:                 1.078     0.084   0.6% |
 Hamiltonian:                        0.994     0.000   0.0% |
  Atomic:                            0.123     0.001   0.0% |
   XC Correction:                    0.122     0.122   0.9% |
  Calculate atomic Hamiltonians:     0.006     0.006   0.0% |
  Communicate:                       0.000     0.000   0.0% |
  Hartree integrate/restrict:        0.043     0.043   0.3% |
  Initialize Hamiltonian:            0.023     0.023   0.2% |
  Poisson:                           0.296     0.008   0.1% |
   Communicate bwd 0:                0.025     0.025   0.2% |
   Communicate bwd 1:                0.017     0.017   0.1% |
   Communicate fwd 0:                0.067     0.067   0.5% |
   Communicate fwd 1:                0.058     0.058   0.4% |
   fft:                              0.036     0.036   0.3% |
   fft2:                             0.086     0.086   0.6% |
  XC 3D grid:                        0.483     0.483   3.4% ||
  vbar:                              0.020     0.020   0.1% |
P tci:                               0.012     0.012   0.1% |
SCF-cycle:                           9.959     0.008   0.1% |
 Density:                            1.027     0.000   0.0% |
  Atomic density matrices:           0.008     0.008   0.1% |
  Mix:                               0.373     0.373   2.7% ||
  Multipole moments:                 0.002     0.002   0.0% |
  Normalize:                         0.003     0.003   0.0% |
  Pseudo density:                    0.640     0.004   0.0% |
   Calculate density matrix:         0.000     0.000   0.0% |
   Construct density:                0.635     0.635   4.5% |-|
   Symmetrize density:               0.000     0.000   0.0% |
 Hamiltonian:                        8.115     0.001   0.0% |
  Atomic:                            1.232     0.010   0.1% |
   XC Correction:                    1.222     1.222   8.7% |--|
  Calculate atomic Hamiltonians:     0.050     0.050   0.4% |
  Communicate:                       0.000     0.000   0.0% |
  Hartree integrate/restrict:        0.138     0.138   1.0% |
  Poisson:                           1.993     0.077   0.5% |
   Communicate bwd 0:                0.229     0.229   1.6% ||
   Communicate bwd 1:                0.153     0.153   1.1% |
   Communicate fwd 0:                0.152     0.152   1.1% |
   Communicate fwd 1:                0.228     0.228   1.6% ||
   fft:                              0.343     0.343   2.4% ||
   fft2:                             0.810     0.810   5.8% |-|
  XC 3D grid:                        4.670     4.670  33.2% |------------|
  vbar:                              0.032     0.032   0.2% |
 LCAO eigensolver:                   0.809     0.001   0.0% |
  Calculate projections:             0.000     0.000   0.0% |
  DenseAtomicCorrection:             0.002     0.002   0.0% |
  Distribute overlap matrix:         0.000     0.000   0.0% |
  Orbital Layouts:                   0.008     0.008   0.1% |
  Potential matrix:                  0.797     0.797   5.7% |-|
ST tci:                              0.004     0.004   0.0% |
Set symmetry:                        0.001     0.001   0.0% |
TCI: Evaluate splines:               0.018     0.018   0.1% |
mktci:                               0.002     0.002   0.0% |
Other:                               2.944     2.944  21.0% |-------|
-----------------------------------------------------------
Total:                                        14.050 100.0%

Date: Fri Feb  7 15:16:16 2020
