
  ___ ___ ___ _ _ _  
 |   |   |_  | | | | 
 | | | | | . | | | | 
 |__ |  _|___|_____|  19.8.1
 |___|_|             

User:   erik@HP-OMEN
Date:   Fri Mar 13 17:26:44 2020
Arch:   x86_64
Pid:    5748
Python: 3.7.5
gpaw:   /home/erik/.local/lib/python3.7/site-packages/gpaw
_gpaw:  /home/erik/.local/lib/python3.7/site-packages/
        _gpaw.cpython-37m-x86_64-linux-gnu.so
ase:    /home/erik/anaconda3/lib/python3.7/site-packages/ase (version 3.19.0)
numpy:  /home/erik/anaconda3/lib/python3.7/site-packages/numpy (version 1.17.4)
scipy:  /home/erik/anaconda3/lib/python3.7/site-packages/scipy (version 1.3.2)
libxc:  3.0.0
units:  Angstrom and eV
cores:  1

Memory usage: 2.94 GiB
Date: Fri Mar 13 18:00:04 2020
_charges, initial_magmoms 

Initialize ...

Al-setup:
  name: Aluminium
  id: 2e6447feaea722efcff26bf034b25f30
  Z: 13
  valence: 3
  core: 10
  charge: 0.0
  file: /usr/bin/gpaw-setups-0.9.20000/Al.LDA.gz
  compensation charges: gauss, rc=0.34, lmax=2
  cutoffs: 1.91(filt), 2.36(core),
  valence states:
                energy  radius
    3s(2.00)    -7.830   1.085
    3p(1.00)    -2.783   1.085
    *s          19.382   1.085
    *p          24.428   1.085
    *d           0.000   1.085

  Using partial waves for Al as LCAO basis

Reference energy: -151303.690069

Spin-paired calculation

Occupation numbers:
  Fermi-Dirac: width=0.1000 eV

Convergence criteria:
  Maximum total energy change: 0.0005 eV / electron
  Maximum integral of absolute density change: 0.0001 electrons
  Maximum integral of absolute eigenstate change: 4e-08 eV^2
  Maximum number of iterations: 333

Symmetries present (total): 1

  ( 1  0  0)
  ( 0  1  0)
  ( 0  0  1)

1 k-point (Gamma)
1 k-point in the irreducible part of the Brillouin zone
       k-points in crystal coordinates                weights
   0:     0.00000000    0.00000000    0.00000000          1/1

Wave functions: Uniform real-space grid
  Kinetic energy operator: 6*3+1=19 point O(h^6) finite-difference Laplacian
  ScaLapack parameters: grid=1x1, blocksize=None
  Wavefunction extrapolation:
    Improved wavefunction reuse through dual PAW basis 

Eigensolver
   Davidson(niter=2, smin=None, normalize=True) 

Densities:
  Coarse grid: 96*96*88 grid
  Fine grid: 192*192*176 grid
  Total Charge: 0.000000 

Density mixing:
  Method: separate
  Backend: pulay
  Linear mixing parameter: 0.05
  Mixing with 5 old densities
  Damping of long wave oscillations: 50 

Timing:           incl.     excl.
----------------------------------------
Set symmetry:     0.005     0.005   0.0% |
Other:         1966.717  1966.717 100.0% |---------------------------------------|
----------------------------------------
Total:                   1966.722 100.0%

Memory usage: 4.60 GiB
Date: Fri Mar 13 18:00:03 2020
 0)  ( 0 -1  0)  ( 0 -1  0)
  (-1  0  0)  (-1  0  0)  ( 1  0  0)  ( 1  0  0)  ( 0  0  1)  ( 0  0  1)
  ( 0  1  0)  ( 0 -1  0)  ( 0  0  1)  ( 0  0 -1)  ( 1  0  0)  (-1  0  0)

  ( 0 -1  0)  ( 0 -1  0)  ( 0 -1  0)  ( 0 -1  0)  (-1  0  0)  (-1  0  0)
  ( 0  0 -1)  ( 0  0 -1)  (-1  0  0)  (-1  0  0)  ( 0  1  0)  ( 0  1  0)
  ( 1  0  0)  (-1  0  0)  ( 0  0  1)  ( 0  0 -1)  ( 0  0  1)  ( 0  0 -1)

  (-1  0  0)  (-1  0  0)  (-1  0  0)  (-1  0  0)  (-1  0  0)  (-1  0  0)
  ( 0  0  1)  ( 0  0  1)  ( 0  0 -1)  ( 0  0 -1)  ( 0 -1  0)  ( 0 -1  0)
  ( 0  1  0)  ( 0 -1  0)  ( 0  1  0)  ( 0 -1  0)  ( 0  0  1)  ( 0  0 -1)

1 k-point (Gamma)
1 k-point in the irreducible part of the Brillouin zone
       k-points in crystal coordinates                weights
   0:     0.00000000    0.00000000    0.00000000          1/1

Wave functions: Uniform real-space grid
  Kinetic energy operator: 6*3+1=19 point O(h^6) finite-difference Laplacian
  ScaLapack parameters: grid=1x1, blocksize=None
  Wavefunction extrapolation:
    Improved wavefunction reuse through dual PAW basis 

Eigensolver
   Davidson(niter=2, smin=None, normalize=True) 

Densities:
  Coarse grid: 80*80*80 grid
  Fine grid: 160*160*160 grid
  Total Charge: 0.000000 

Density mixing:
  Method: separate
  Backend: pulay
  Linear mixing parameter: 0.05
  Mixing with 5 old densities
  Damping of long wave oscillations: 50 

Hamiltonian:
  XC and Coulomb potentials evaluated on a 160*160*160 grid
  Using the LDA Exchange-Correlation functional
  Interpolation: tri-quintic (5. degree polynomial)
  Poisson solver: FastPoissonSolver using
    6*3+1=19 point O(h^6) finite-difference Laplacian stencil;
    FFT axes: [0, 1, 2];
    FST axes: [].
 

Memory estimate:
  Process memory now: 3749.70 MiB
  Calculator: 493.05 MiB
    Density: 180.53 MiB
      Arrays: 101.56 MiB
      Localized functions: 39.90 MiB
      Mixer: 39.06 MiB
    Hamiltonian: 69.35 MiB
      Arrays: 66.41 MiB
      XC: 0.00 MiB
      Poisson: 0.00 MiB
      vbar: 2.95 MiB
    Wavefunctions: 243.17 MiB
      Arrays psit_nG: 109.38 MiB
      Eigensolver: 128.97 MiB
      Projections: 0.04 MiB
      Projectors: 4.79 MiB

Total number of cores used: 1

Number of atoms: 13
Number of atomic orbitals: 52
Number of bands in calculation: 28
Bands to converge: occupied states only
Number of valence electrons: 39

... initialized

Initializing position-dependent things.

Density initialized from atomic densities
Creating initial wave functions:
  28 bands from LCAO basis set

           .--------------------------------------.  
          /|                                      |  
         / |                                      |  
        /  |                                      |  
       /   |                                      |  
      /    |                                      |  
     /     |                                      |  
    /      |                                      |  
   /       |                                      |  
  /        |                                      |  
 *         |                                      |  
 |         |               Al                     |  
 |         |         Al       Al                  |  
 |         |          AlAl     Al                 |  
 |         |                                      |  
 |         |             Al                       |  
 |         |        Al     AlAl                   |  
 |         |         Al       Al                  |  
 |         |            Al                        |  
 |         .--------------------------------------.  
 |        /                                      /   
 |       /                                      /    
 |      /                                      /     
 |     /                                      /      
 |    /                                      /       
 |   /                                      /        
 |  /                                      /         
 | /                                      /          
 |/                                      /           
 *--------------------------------------*            

Positions:
   0 Al     7.930480    6.008194    6.008194    ( 0.0000,  0.0000,  0.0000)
   1 Al     6.008194    7.930480    6.008194    ( 0.0000,  0.0000,  0.0000)
   2 Al     9.852766    7.930480    6.008194    ( 0.0000,  0.0000,  0.0000)
   3 Al     7.930480    9.852766    6.008194    ( 0.0000,  0.0000,  0.0000)
   4 Al     6.008194    6.008194    7.930480    ( 0.0000,  0.0000,  0.0000)
   5 Al     9.852766    6.008194    7.930480    ( 0.0000,  0.0000,  0.0000)
   6 Al     7.930480    6.008194    9.852766    ( 0.0000,  0.0000,  0.0000)
   7 Al     6.008194    9.852766    7.930480    ( 0.0000,  0.0000,  0.0000)
   8 Al     6.008194    7.930480    9.852766    ( 0.0000,  0.0000,  0.0000)
   9 Al     7.930480    7.930480    7.930480    ( 0.0000,  0.0000,  0.0000)
  10 Al     9.852766    9.852766    7.930480    ( 0.0000,  0.0000,  0.0000)
  11 Al     9.852766    7.930480    9.852766    ( 0.0000,  0.0000,  0.0000)
  12 Al     7.930480    9.852766    9.852766    ( 0.0000,  0.0000,  0.0000)

Unit cell:
           periodic     x           y           z      points  spacing
  1. axis:    yes   15.860960    0.000000    0.000000    80     0.1983
  2. axis:    yes    0.000000   15.860960    0.000000    80     0.1983
  3. axis:    yes    0.000000    0.000000   15.860960    80     0.1983

  Lengths:  15.860960  15.860960  15.860960
  AngleTiming:                              incl.     excl.
-----------------------------------------------------------
Hamiltonian:                         4.958     0.000   0.0% |
 Atomic:                             0.456     0.003   0.0% |
  XC Correction:                     0.453     0.453   0.0% |
 Calculate atomic Hamiltonians:      0.020     0.020   0.0% |
 Communicate:                        0.000     0.000   0.0% |
 Hartree integrate/restrict:         0.198     0.198   0.0% |
 Initialize Hamiltonian:             0.000     0.000   0.0% |
 Poisson:                            2.663     0.204   0.0% |
  Communicate bwd 0:                 0.490     0.490   0.0% |
  Communicate bwd 1:                 0.468     0.468   0.0% |
  Communicate fwd 0:                 0.250     0.250   0.0% |
  Communicate fwd 1:                 0.463     0.463   0.0% |
  fft:                               0.301     0.301   0.0% |
  fft2:                              0.486     0.486   0.0% |
 XC 3D grid:                         1.548     1.548   0.1% |
 vbar:                               0.073     0.073   0.0% |
LCAO initialization:                 1.328     0.021   0.0% |
 LCAO eigensolver:                   0.243     0.000   0.0% |
  Calculate projections:             0.001     0.001   0.0% |
  DenseAtomicCorrection:             0.001     0.001   0.0% |
  Distribute overlap matrix:         0.000     0.000   0.0% |
  Orbital Layouts:                   0.034     0.034   0.0% |
  Potential matrix:                  0.208     0.208   0.0% |
 LCAO to grid:                       0.823     0.823   0.0% |
 Set positions (LCAO WFS):           0.240     0.040   0.0% |
  Basic WFS set positions:           0.001     0.001   0.0% |
  Basis functions set positions:     0.000     0.000   0.0% |
  P tci:                             0.145     0.145   0.0% |
  ST tci:                            0.034     0.034   0.0% |
  mktci:                             0.020     0.020   0.0% |
SCF-cycle:                        1774.841  1737.527  96.4% |--------------------------------------|
 Davidson:                          25.692    12.208   0.7% |
  Apply hamiltonian:                 2.878     2.878   0.2% |
  Subspace diag:                     3.862     0.000   0.0% |
   calc_h_matrix:                    2.983     0.188   0.0% |
    Apply hamiltonian:               2.795     2.795   0.2% |
   diagonalize:                      0.006     0.006   0.0% |
   rotate_psi:                       0.873     0.873   0.0% |
  calc. matrices:                    5.675     1.233   0.1% |
   Apply hamiltonian:                4.441     4.441   0.2% |
  diagonalize:                       0.011     0.011   0.0% |
  rotate_psi:                        1.058     1.058   0.1% |
 Density:                            0.822     0.000   0.0% |
  Atomic density matrices:           0.008     0.008   0.0% |
  Mix:                               0.647     0.647   0.0% |
  Multipole moments:                 0.001     0.001   0.0% |
  Pseudo density:                    0.167     0.167   0.0% |
   Symmetrize density:               0.000     0.000   0.0% |
 Hamiltonian:                       10.276     0.000   0.0% |
  Atomic:                            0.915     0.005   0.0% |
   XC Correction:                    0.910     0.910   0.1% |
  Calculate atomic Hamiltonians:     0.035     0.035   0.0% |
  Communicate:                       0.000     0.000   0.0% |
  Hartree integrate/restrict:        0.346     0.346   0.0% |
  Poisson:                           5.764     0.333   0.0% |
   Communicate bwd 0:                0.962     0.962   0.1% |
   Communicate bwd 1:                1.001     1.001   0.1% |
   Communicate fwd 0:                0.515     0.515   0.0% |
   Communicate fwd 1:                1.409     1.409   0.1% |
   fft:                              0.592     0.592   0.0% |
   fft2:                             0.951     0.951   0.1% |
  XC 3D grid:                        3.187     3.187   0.2% |
  vbar:                              0.028     0.028   0.0% |
 Orthonormalize:                     0.524     0.000   0.0% |
  calc_s_matrix:                     0.058     0.058   0.0% |
  inverse-cholesky:                  0.014     0.014   0.0% |
  projections:                       0.093     0.093   0.0% |
  rotate_psi_s:                      0.357     0.357   0.0% |
Set symmetry:                        0.001     0.001   0.0% |
Other:                              20.990    20.990   1.2% |
-----------------------------------------------------------
Total:                                      1802.118 100.0%

Memory usage: 4.60 GiB
Date: Fri Mar 13 18:00:03 2020
/Al.LDA.gz
  compensation charges: gauss, rc=0.34, lmax=2
  cutoffs: 1.91(filt), 2.36(core),
  valence states:
                energy  radius
    3s(2.00)    -7.830   1.085
    3p(1.00)    -2.783   1.085
    *s          19.382   1.085
    *p          24.428   1.085
    *d           0.000   1.085

  Using partial waves for Al as LCAO basis

Reference energy: -151303.690069

Spin-paired calculation

Occupation numbers:
  Fermi-Dirac: width=0.1000 eV

Convergence criteria:
  Maximum total energy change: 0.0005 eV / electron
  Maximum integral of absolute density change: 0.0001 electrons
  Maximum integral of absolute eigenstate change: 4e-08 eV^2
  Maximum number of iterations: 333

Symmetries present (total): 1

  ( 1  0  0)
  ( 0  1  0)
  ( 0  0  1)

1 k-point (Gamma)
1 k-point in the irreducible part of the Brillouin zone
       k-points in crystal coordinates                weights
   0:     0.00000000    0.00000000    0.00000000          1/1

Wave functions: Uniform real-space grid
  Kinetic energy operator: 6*3+1=19 point O(h^6) finite-difference Laplacian
  ScaLapack parameters: grid=1x1, blocksize=None
  Wavefunction extrapolation:
    Improved wavefunction reuse through dual PAW basis 

Eigensolver
   Davidson(niter=2, smin=None, normalize=True) 

Densities:
  Coarse grid: 96*96*88 grid
  Fine grid: 192*192*176 grid
  Total Charge: 0.000000 

Density mixing:
  Method: separate
  Backend: pulay
  Linear mixing parameter: 0.05
  Mixing with 5 old densities
  Damping of long wave oscillations: 50 

System changes: cell, positions, numbers 

Initialize ...

Al-setup:
  name: Aluminium
  id: 2e6447feaea722efcff26bf034b25f30
  Z: 13
  valence: 3
  core: 10
  charge: 0.0
  file: /usr/bin/gpaw-setups-0.9.20000/Al.LDA.gz
  compensation charges: gauss, rc=0.34, lmax=2
  cutoffs: 1.91(filt), 2.36(core),
  valence states:
                energy  radius
    3s(2.00)    -7.830   1.085
    3p(1.00)    -2.783   1.085
    *s          19.382   1.085
    *p          24.428   1.085
    *d           0.000   1.085

  Using partial waves for Al as LCAO basis

Reference energy: -85519.476996

Spin-paired calculation

Occupation numbers:
  Fermi-Dirac: width=0.1000 eV

Convergence criteria:
  Maximum total energy change: 0.0005 eV / electron
  Maximum integral of absolute density change: 0.0001 electrons
  Maximum integral of absolute eigenstate change: 4e-08 eV^2
  Maximum number of iterations: 333

Symmetries present (total): 48

  ( 1  0  0)  ( 1  0  0)  ( 1  0  0)  ( 1  0  0)  ( 1  0  0)  ( 1  0  0)
  ( 0  1  0)  ( 0  1  0)  ( 0  0  1)  ( 0  0  1)  ( 0  0 -1)  ( 0  0 -1)
  ( 0  0  1)  ( 0  0 -1)  ( 0  1  0)  ( 0 -1  0)  ( 0  1  0)  ( 0 -1  0)

  ( 1  0  0)  ( 1  0  0)  ( 0  1  0)  ( 0  1  0)  ( 0  1  0)  ( 0  1  0)
  ( 0 -1  0)  ( 0 -1  0)  ( 1  0  0)  ( 1  0  0)  ( 0  0  1)  ( 0  0  1)
  ( 0  0  1)  ( 0  0 -1)  ( 0  0  1)  ( 0  0 -1)  ( 1  0  0)  (-1  0  0)

  ( 0  1  0)  ( 0  1  0)  ( 0  1  0)  ( 0  1  0)  ( 0  0  1)  ( 0  0  1)
  ( 0  0 -1)  ( 0  0 -1)  (-1  0  0)  (-1  0  0)  ( 1  0  0)  ( 1  0  0)
  ( 1  0  0)  (-1  0  0)  ( 0  0  1)  ( 0  0 -1)  ( 0  1  0)  ( 0 -1  0)

  ( 0  0  1)  ( 0  0  1)  ( 0  0  1)  ( 0  0  1)  ( 0  0  1)  ( 0  0  1)
  ( 0  1  0)  ( 0  1  0)  ( 0 -1  0)  ( 0 -1  0)  (-1  0  0)  (-1  0  0)
  ( 1  0  0)  (-1  0  0)  ( 1  0  0)  (-1  0  0)  ( 0  1  0)  ( 0 -1  0)

  ( 0  0 -1)  ( 0  0 -1)  ( 0  0 -1)  ( 0  0 -1)  ( 0  0 -1)  ( 0  0 -1)
  ( 1  0  0)  ( 1  0  0)  ( 0  1  0)  ( 0  1  0)  ( 0 -1  0)  ( 0 -1  0)
  ( 0  1  0)  ( 0 -1  0)  ( 1  0  0)  (-1  0  0)  ( 1  0  0)  (-1  0  0)

  ( 0  0 -1)  ( 0  0 -1)  ( 0 -1  0)  ( 0 -1  0)  ( 0 -1  0)  ( 0 -1  0)
  (-1  0  0)  (-1  0  0)  ( 1  0  0)  ( 1  0  0)  ( 0  0  1)  ( 0  0  1)
  ( 0  1  0)  ( 0 -1  0)  ( 0  0  1)  ( 0  0 -1)  ( 1  0  0)  (-1  0  0)

  ( 0 -1  0)  ( 0 -1  0)  ( 0 -1  0)  ( 0 -1  0)  (-1  0  0)  (-1  0  0)
  ( 0  0 -1)  ( 0  0 -1)  (-1  0  0)  (-1  0  0)  ( 0  1  0)  ( 0  1  0)
  ( 1  0  0)  (-1  0  0)  ( 0  0  1)  ( 0  0 -1)  ( 0  0  1)  ( 0  0 -1)

  (-1  0  0)  (-1  0  0)  (-1  0  0)  (-1  0  0)  (-1  0  0)  (-1  0  0)
  ( 0  0  1)  ( 0  0  1)  ( 0  0 -1)  ( 0  0 -1)  ( 0 -1  0)  ( 0 -1  0)
  ( 0  1  0)  ( 0 -1  0)  ( 0  1  0)  ( 0 -1  0)  ( 0  0  1)  ( 0  0 -1)

1 k-point (Gamma)
1 k-point in the irreducible part of the Brillouin zone
       k-points in crystal coordinates                weights
   0:     0.00000000    0.00000000    0.00000000          1/1

Wave functions: Uniform real-space grid
  Kinetic energy operator: 6*3+1=19 point O(h^6) finite-difference Laplacian
  ScaLapack parameters: grid=1x1, blocksize=None
  Wavefunction extrapolation:
    Improved wavefunction reuse through dual PAW basis 

Eigensolver
   Davidson(niter=2, smin=None, normalize=True) 

Densities:
  Coarse grid: 80*80*80 grid
  Fine grid: 160*160*160 grid
  Total Charge: 0.000000 

Density mixing:
  Method: separate
  Backend: pulay
  Linear mixing parameter: 0.05
  Mixing with 5 old densities
  Damping of long wave oscillations: 50 

Hamiltonian:
  XC and Coulomb potentials evaluated on a 160*160*160 grid
  Using the LDA Exchange-Correlation functional
  Interpolation: tri-quintic (5. degree polynomial)
  Poisson solver: FastPoissonSolver using
    6*3+1=19 point O(h^6) finite-difference Laplacian stencil;
    FFT axes: [0, 1, 2];
    FST axes: [].
 

Memory estimate:
  Process memory now: 4558.75 MiB
  Calculator: 493.05 MiB
    Density: 180.53 MiB
      Arrays: 101.56 MiB
      Localized functions: 39.90 MiB
      Mixer: 39.06 MiB
    Hamiltonian: 69.35 MiB
      Arrays: 66.41 MiB
      XC: 0.00 MiB
      Poisson: 0.00 MiB
      vbar: 2.95 MiB
    Wavefunctions: 243.17 MiB
      Arrays psit_nG: 109.38 MiB
      Eigensolver: 128.97 MiB
      Projections: 0.04 MiB
      Projectors: 4.79 MiB

Total number of cores used: 1

Number of atoms: 13
Number of atomic orbitals: 52
Number of bands in calculation: 28
Bands to converge: occupied states only
Number of valence electrons: 39

... initialized

Initializing position-dependent things.

Density initialized from atomic densities
Creating initial wave functions:
  28 bands from LCAO basis set

           .--------------------------------------.  
          /|                                      |  
         / |                                      |  
        /  |                                      |  
       /   |                                      |  
      /    |                                      |  
     /     |                                      |  
    /      |                                      |  
   /       |                                      |  
  /        |                                      |  
 *         |                                      |  
 |         |               Al                     |  
 |         |         Al       Al                  |  
 |         |          AlAl     Al                 |  
 |         |                                      |  
 |         |             Al                       |  
 |         |        Al     AlAl                   |  
 |         |         Al       Al                  |  
 |         |            Al                        |  
 |         .--------------------------------------.  
 |        /                                      /   
 |       /                                      /    
 |      /                                      /     
 |     /                                      /      
 |    /                                      /       
 |   /                                      /        
 |  /                                      /         
 | /                                      /          
 |/                                      /           
 *--------------------------------------*            

Positions:
   0 Al     7.930480    6.008194    6.008194    ( 0.0000,  0.0000,  0.0000)
   1 Al     6.008194    7.930480    6.008194    ( 0.0000,  0.0000,  0.0000)
   2 Al     9.852766    7.930480    6.008194    ( 0.0000,  0.0000,  0.0000)
   3 Al     7.930480    9.852766    6.008194    ( 0.0000,  0.0000,  0.0000)
   4 Al     6.008194    6.008194    7.930480    ( 0.0000,  0.0000,  0.0000)
   5 Al     9.852766    6.008194    7.930480    ( 0.0000,  0.0000,  0.0000)
   6 Al     7.930480    6.008194    9.852766    ( 0.0000,  0.0000,  0.0000)
   7 Al     6.008194    9.852766    7.930480    ( 0.0000,  0.0000,  0.0000)
   8 Al     6.008194    7.930480    9.852766    ( 0.0000,  0.0000,  0.0000)
   9 Al     7.930480    7.930480    7.930480    ( 0.0000,  0.0000,  0.0000)
  10 Al     9.852766    9.852766    7.930480    ( 0.0000,  0.0000,  0.0000)
  11 Al     9.852766    7.930480    9.852766    ( 0.0000,  0.0000,  0.0000)
  12 Al     7.930480    9.852766    9.852766    ( 0.0000,  0.0000,  0.0000)

Unit cell:
           periodic     x           y           z      points  spacing
  1. axis:    yes   15.860960    0.000000    0.000000    80     0.1983
  2. axis:    yes    0.000000   15.860960    0.000000    80     0.1983
  3. axis:    yes    0.000000    0.000000   15.860960    80     0.1983

  Lengths:  15.860960  15.860960  15.860960
  Angles:   90.000000  90.000000  90.000000

Effective grid spacing dv^(1/3) = 0.1983

                     log10-error:    total        iterations:
           time      wfs    density  energy       fermi  poisson
iter:   1  17:50:18  +1.15   +inf   -42.485997    5      1      
iter:   2  17:50:25  +0.16  -0.79   -42.175571    5      1      
