
  ___ ___ ___ _ _ _  
 |   |   |_  | | | | 
 | | | | | . | | | | 
 |__ |  _|___|_____|  19.8.1
 |___|_|             

User:   holmins@hebbe12-2
Date:   Wed Feb  5 21:09:12 2020
Arch:   x86_64
Pid:    21262
Python: 3.7.2
gpaw:   /apps/Hebbe7/software/MPI/intel/2019.1.144-GCC-8.2.0-2.31.1/impi/2018.4.274/GPAW/19.8.1-Python-3.7.2/lib/python3.7/site-packages/gpaw
_gpaw:  /apps/Hebbe7/software/MPI/intel/2019.1.144-GCC-8.2.0-2.31.1/impi/2018.4.274/GPAW/19.8.1-Python-3.7.2/bin/
        gpaw-python
ase:    /apps/Hebbe7/software/MPI/intel/2019.1.144-GCC-8.2.0-2.31.1/impi/2018.4.274/ASE/3.18.0-Python-3.7.2/lib/python3.7/site-packages/ase (version 3.18.0)
numpy:  /apps/Hebbe7/software/MPI/intel/2019.1.144-GCC-8.2.0-2.31.1/impi/2018.4.274/SciPy-bundle/2019.03/lib/python3.7/site-packages/numpy (version 1.16.2)
scipy:  /apps/Hebbe7/software/MPI/intel/2019.1.144-GCC-8.2.0-2.31.1/impi/2018.4.274/SciPy-bundle/2019.03/lib/python3.7/site-packages/scipy (version 1.2.1)
libxc:  4.3.4
units:  Angstrom and eV
cores:  1

Input parameters:
  basis: dzp
  h: 0.25
  nbands: 10
  occupations: {name: fermi-dirac,
                width: 0.05}
  setups: {Na: 1}

System changes: positions, numbers, cell, pbc, initial_charges, initial_magmoms 

Initialize ...

Na-setup:
  name: Sodium
  id: fa5c50181d04022fed15b2593599c257
  Z: 11
  valence: 1
  core: 10
  charge: 0.0
  file: /apps/Common/Core/GPAW-setups/0.9.20000/Na.1.LDA.gz
  compensation charges: gauss, rc=0.43, lmax=2
  cutoffs: 2.36(filt), 3.60(core),
  valence states:
                energy  radius
    3s(1.00)    -2.819   1.349
    3p(0.00)    -0.774   1.349
    *s          24.392   1.349

  LCAO basis set for Na:
    Name: 1.dzp
    File: /apps/Common/Core/GPAW-setups/0.9.20000/Na.1.dzp.basis.gz
    Number of radial functions: 3
    Number of spherical harmonics: 5
      l=0, rc=11.7656 Bohr: 3s-sz confined orbital
      l=0, rc=7.1094 Bohr: 3s-dz split-valence wave
      l=1, rc=11.7656 Bohr: p-type Gaussian polarization

Reference energy: -26392.251304

Spin-paired calculation

Occupation numbers:
  Fermi-Dirac: width=0.0500 eV

Convergence criteria:
  Maximum total energy change: 0.0005 eV / electron
  Maximum integral of absolute density change: 0.0001 electrons
  Maximum integral of absolute eigenstate change: 4e-08 eV^2
  Maximum number of iterations: 333

Symmetries present (total): 1

  ( 1  0  0)
  ( 0  1  0)
  ( 0  0  1)

1 k-point (Gamma)
1 k-point in the irreducible part of the Brillouin zone
       k-points in crystal coordinates                weights
   0:     0.00000000    0.00000000    0.00000000          1/1

Wave functions: Uniform real-space grid
  Kinetic energy operator: 6*3+1=19 point O(h^6) finite-difference Laplacian
  ScaLapack parameters: grid=1x1, blocksize=None
  Wavefunction extrapolation:
    Improved wavefunction reuse through dual PAW basis 

Eigensolver
   Davidson(niter=2, smin=None, normalize=True) 

Densities:
  Coarse grid: 64*64*64 grid
  Fine grid: 128*128*128 grid
  Total Charge: 0.000000 

Density mixing:
  Method: separate
  Backend: pulay
  Linear mixing parameter: 0.25
  Mixing with 3 old densities
  No damping of long wave oscillations 

Hamiltonian:
  XC and Coulomb potentials evaluated on a 128*128*128 grid
  Using the LDA Exchange-Correlation functional
  Interpolation: tri-quintic (5. degree polynomial)
  Poisson solver: FastPoissonSolver using
    6*3+1=19 point O(h^6) finite-difference Laplacian stencil;
    FFT axes: [];
    FST axes: [0, 1, 2].
 

Memory estimate:
  Process memory now: 276.82 MiB
  Calculator: 163.06 MiB
    Density: 80.09 MiB
      Arrays: 50.70 MiB
      Localized functions: 17.94 MiB
      Mixer: 11.45 MiB
    Hamiltonian: 34.46 MiB
      Arrays: 33.16 MiB
      XC: 0.00 MiB
      Poisson: 0.00 MiB
      vbar: 1.29 MiB
    Wavefunctions: 48.51 MiB
      Arrays psit_nG: 19.08 MiB
      Eigensolver: 28.62 MiB
      Projections: 0.00 MiB
      Projectors: 0.81 MiB

Total number of cores used: 1

Number of atoms: 6
Number of atomic orbitals: 30
Number of bands in calculation: 10
Bands to converge: occupied states only
Number of valence electrons: 6

... initialized

Initializing position-dependent things.

Density initialized from atomic densities
Creating initial wave functions:
  10 bands from LCAO basis set

           .--------------------------------------.  
          /|                                      |  
         / |                                      |  
        /  |                                      |  
       /   |                                      |  
      /    |                                      |  
     /     |                                      |  
    /      |                                      |  
   /       |                                      |  
  /        |                                      |  
 *         |                                      |  
 |         |                                      |  
 |         |          Na                          |  
 |         |            Na                        |  
 |         |                                      |  
 |         |               Na                     |  
 |         |            Na                        |  
 |         |                                      |  
 |         |              Na                      |  
 |         |                                      |  
 |         .-------------Na-----------------------.  
 |        /                                      /   
 |       /                                      /    
 |      /                                      /     
 |     /                                      /      
 |    /                                      /       
 |   /                                      /        
 |  /                                      /         
 | /                                      /          
 |/                                      /           
 *--------------------------------------*            

Positions:
   0 Na     7.067612    9.458423    8.911254    ( 0.0000,  0.0000,  0.0000)
   1 Na     6.753529    7.081981   11.181019    ( 0.0000,  0.0000,  0.0000)
   2 Na     7.719195    6.035271    8.210598    ( 0.0000,  0.0000,  0.0000)
   3 Na     8.655705    5.263752    5.142034    ( 0.0000,  0.0000,  0.0000)
   4 Na     7.580252   11.620434    6.481886    ( 0.0000,  0.0000,  0.0000)
   5 Na     8.139119    8.465218    5.679422    ( 0.0000,  0.0000,  0.0000)

Unit cell:
           periodic     x           y           z      points  spacing
  1. axis:    no    16.000000    0.000000    0.000000    64     0.2500
  2. axis:    no     0.000000   16.000000    0.000000    64     0.2500
  3. axis:    no     0.000000    0.000000   16.000000    64     0.2500

  Lengths:  16.000000  16.000000  16.000000
  Angles:   90.000000  90.000000  90.000000

Effective grid spacing dv^(1/3) = 0.2500

                     log10-error:    total        iterations:
           time      wfs    density  energy       fermi  poisson
iter:   1  21:09:17  +1.62   +inf    -5.584811    2      1      
iter:   2  21:09:18  -0.83  -0.47    -5.317902    7      1      
iter:   3  21:09:20  -0.87  -0.71    -5.263044    6      1      
iter:   4  21:09:21  -1.16  -1.07    -5.258414    2      1      
iter:   5  21:09:23  -1.77  -1.54    -5.258905    2      1      
iter:   6  21:09:24  -2.41  -1.81    -5.259106    2      1      
iter:   7  21:09:26  -2.70  -1.93    -5.259333    2      1      
iter:   8  21:09:28  -3.72  -2.64    -5.259323    2      1      
iter:   9  21:09:29  -3.81  -2.74    -5.259327    1      1      
iter:  10  21:09:31  -4.71  -3.15    -5.259328    1      1      
iter:  11  21:09:33  -5.12  -3.55    -5.259328    1      1      
iter:  12  21:09:34  -5.30  -3.64    -5.259328    1      1      
iter:  13  21:09:36  -5.88  -4.16    -5.259328    1      1      
iter:  14  21:09:37  -6.40  -4.30    -5.259328    1      1      
iter:  15  21:09:39  -6.89  -4.61    -5.259328    1      1      
iter:  16  21:09:41  -7.38  -4.99    -5.259328    1      1      
iter:  17  21:09:42  -7.83  -5.45    -5.259328    1      1      

Converged after 17 iterations.

Dipole moment: (0.005165, 0.037983, -0.004327) |e|*Ang

Energy contributions relative to reference atoms: (reference = -26392.251304)

Kinetic:        +11.843848
Potential:      -10.867529
External:        +0.000000
XC:              -6.228988
Entropy (-ST):   -0.000011
Local:           -0.006654
--------------------------
Free energy:     -5.259333
Extrapolated:    -5.259328

Fermi level: -2.49009

 Band  Eigenvalues  Occupancy
    0     -4.15207    2.00000
    1     -3.15283    2.00000
    2     -3.14696    2.00000
    3     -1.85248    0.00001
    4     -1.76357    0.00000
    5     -1.74486    0.00000
    6     -0.67723    0.00000
    7     -0.64436    0.00000
    8     -0.43499    0.00000
    9      0.03869    0.00000

Gap: 1.294 eV
Transition (v -> c):
  (s=0, k=0, n=2, [0.00, 0.00, 0.00]) -> (s=0, k=0, n=3, [0.00, 0.00, 0.00])
System changes: positions 

Initializing position-dependent things.

Density initialized from wave functions
           .--------------------------------------.  
          /|                                      |  
         / |                                      |  
        /  |                                      |  
       /   |                                      |  
      /    |                                      |  
     /     |                                      |  
    /      |                                      |  
   /       |                                      |  
  /        |                                      |  
 *         |                                      |  
 |         |               Na                     |  
 |         |                                      |  
 |         |                     Na               |  
 |         |                                      |  
 |         |        Na   Na                       |  
 |         |                                      |  
 |         |                                      |  
 |         |                 Na                   |  
 |         |         Na                           |  
 |         .--------------------------------------.  
 |        /                                      /   
 |       /                                      /    
 |      /                                      /     
 |     /                                      /      
 |    /                                      /       
 |   /                                      /        
 |  /                                      /         
 | /                                      /          
 |/                                      /           
 *--------------------------------------*            

Positions:
   0 Na     7.260931    9.580741    7.493961    ( 0.0000,  0.0000,  0.0000)
   1 Na    10.358243   10.419606    7.991874    ( 0.0000,  0.0000,  0.0000)
   2 Na     8.389072    8.814170   10.443149    ( 0.0000,  0.0000,  0.0000)
   3 Na     6.405310    7.312331    5.318965    ( 0.0000,  0.0000,  0.0000)
   4 Na     5.945555    6.904525    8.783225    ( 0.0000,  0.0000,  0.0000)
   5 Na     9.127926    9.492149    4.829169    ( 0.0000,  0.0000,  0.0000)

Unit cell:
           periodic     x           y           z      points  spacing
  1. axis:    no    16.000000    0.000000    0.000000    64     0.2500
  2. axis:    no     0.000000   16.000000    0.000000    64     0.2500
  3. axis:    no     0.000000    0.000000   16.000000    64     0.2500

  Lengths:  16.000000  16.000000  16.000000
  Angles:   90.000000  90.000000  90.000000

Effective grid spacing dv^(1/3) = 0.2500

                     log10-error:    total        iterations:
           time      wfs    density  energy       fermi  poisson
iter:   1  21:09:44  +1.36   +inf    -8.351031    21     1      
iter:   2  21:09:46  +1.06  -0.05    -6.371995    30     1      
iter:   3  21:09:48  +1.43  -0.22    -5.645326    21     1      
iter:   4  21:09:49  +0.39  -0.51    -5.257638    28     1      
iter:   5  21:09:51  +0.06  -0.77    -5.283348    3      1      
iter:   6  21:09:53  -0.32  -0.97    -5.306942    4      1      
iter:   7  21:09:54  -0.70  -1.50    -5.315341    2      1      
iter:   8  21:09:56  -1.14  -1.62    -5.318514    2      1      
iter:   9  21:09:58  -1.58  -1.75    -5.319796    2      1      
iter:  10  21:09:59  -1.99  -2.16    -5.320301    1      1      
iter:  11  21:10:01  -2.33  -2.19    -5.320598    2      1      
iter:  12  21:10:03  -2.69  -2.52    -5.320714    2      1      
iter:  13  21:10:04  -3.02  -2.73    -5.320766    1      1      
iter:  14  21:10:06  -3.34  -2.93    -5.320790    1      1      
iter:  15  21:10:08  -3.71  -3.05    -5.320800    1      1      
iter:  16  21:10:09  -4.13  -3.16    -5.320805    1      1      
iter:  17  21:10:11  -4.48  -3.64    -5.320807    1      1      
iter:  18  21:10:12  -4.81  -3.61    -5.320808    1      1      
iter:  19  21:10:14  -5.12  -3.90    -5.320808    1      1      
iter:  20  21:10:16  -5.42  -4.22    -5.320808    1      1      
iter:  21  21:10:17  -5.78  -4.21    -5.320808    1      1      
iter:  22  21:10:19  -6.13  -4.37    -5.320809    1      1      
iter:  23  21:10:21  -6.48  -4.51    -5.320809    1      1      
iter:  24  21:10:22  -6.79  -4.88    -5.320809    1      1      
iter:  25  21:10:24  -7.11  -4.92    -5.320809    1      1      
iter:  26  21:10:26  -7.43  -4.97    -5.320809    1      1      

Converged after 26 iterations.

Dipole moment: (0.091408, -0.094206, -0.032195) |e|*Ang

Energy contributions relative to reference atoms: (reference = -26392.251304)

Kinetic:        +11.908252
Potential:      -10.769237
External:        +0.000000
XC:              -6.452285
Entropy (-ST):   -0.000037
Local:           -0.007519
--------------------------
Free energy:     -5.320827
Extrapolated:    -5.320809

Fermi level: -2.50664

 Band  Eigenvalues  Occupancy
    0     -4.27570    2.00000
    1     -3.10000    1.99999
    2     -3.09614    1.99998
    3     -1.94700    0.00003
    4     -1.77580    0.00000
    5     -1.76724    0.00000
    6     -1.45450    0.00000
    7     -0.85928    0.00000
    8     -0.83993    0.00000
    9     -0.37337    0.00000

Gap: 1.149 eV
Transition (v -> c):
  (s=0, k=0, n=2, [0.00, 0.00, 0.00]) -> (s=0, k=0, n=3, [0.00, 0.00, 0.00])
System changes: positions 

Initializing position-dependent things.

Density initialized from wave functions
           .--------------------------------------.  
          /|                                      |  
         / |                                      |  
        /  |                                      |  
       /   |                                      |  
      /    |                                      |  
     /     |                                      |  
    /      |                                      |  
   /       |                                      |  
  /        |                                      |  
 *         |                                      |  
 |         |                                      |  
 |         |          Na                          |  
 |         |            Na                        |  
 |         |                                      |  
 |         |               Na                     |  
 |         |            Na                        |  
 |         |                                      |  
 |         |              Na                      |  
 |         |                                      |  
 |         .-------------Na-----------------------.  
 |        /                                      /   
 |       /                                      /    
 |      /                                      /     
 |     /                                      /      
 |    /                                      /       
 |   /                                      /        
 |  /                                      /         
 | /                                      /          
 |/                                      /           
 *--------------------------------------*            

Positions:
   0 Na     7.067612    9.458423    8.911254    ( 0.0000,  0.0000,  0.0000)
   1 Na     6.753529    7.081981   11.181019    ( 0.0000,  0.0000,  0.0000)
   2 Na     7.719195    6.035271    8.210598    ( 0.0000,  0.0000,  0.0000)
   3 Na     8.655705    5.263752    5.142034    ( 0.0000,  0.0000,  0.0000)
   4 Na     7.580252   11.620434    6.481886    ( 0.0000,  0.0000,  0.0000)
   5 Na     8.139119    8.465218    5.679422    ( 0.0000,  0.0000,  0.0000)

Unit cell:
           periodic     x           y           z      points  spacing
  1. axis:    no    16.000000    0.000000    0.000000    64     0.2500
  2. axis:    no     0.000000   16.000000    0.000000    64     0.2500
  3. axis:    no     0.000000    0.000000   16.000000    64     0.2500

  Lengths:  16.000000  16.000000  16.000000
  Angles:   90.000000  90.000000  90.000000

Effective grid spacing dv^(1/3) = 0.2500

                     log10-error:    total        iterations:
           time      wfs    density  energy       fermi  poisson
iter:   1  21:10:27  +1.32   +inf    -7.926293    17     1      
iter:   2  21:10:29  +1.07  -0.04    -5.904505    26     1      
iter:   3  21:10:31  +1.04  -0.25    -5.199300    25     1      
iter:   4  21:10:32  +0.29  -0.61    -5.225119    3      1      
iter:   5  21:10:34  -0.06  -0.78    -5.241814    5      1      
iter:   6  21:10:36  -0.51  -1.25    -5.252563    2      1      
iter:   7  21:10:37  -1.01  -1.40    -5.256728    2      1      
iter:   8  21:10:39  -1.58  -1.51    -5.258121    2      1      
iter:   9  21:10:41  -1.90  -2.05    -5.258690    1      1      
iter:  10  21:10:42  -2.24  -2.14    -5.259052    2      1      
iter:  11  21:10:44  -2.60  -2.37    -5.259206    2      1      
iter:  12  21:10:46  -2.91  -2.60    -5.259276    2      1      
iter:  13  21:10:47  -3.29  -3.04    -5.259306    1      1      
iter:  14  21:10:49  -3.63  -3.05    -5.259319    1      1      
iter:  15  21:10:51  -3.96  -2.97    -5.259325    1      1      
iter:  16  21:10:53  -4.28  -2.93    -5.259329    1      1      
iter:  17  21:10:55  -4.72  -2.79    -5.259329    1      1      
iter:  18  21:10:57  -4.99  -3.00    -5.259328    1      1      
iter:  19  21:10:58  -5.55  -3.57    -5.259328    1      1      
iter:  20  21:11:01  -5.87  -3.68    -5.259328    1      1      
iter:  21  21:11:02  -6.31  -4.03    -5.259328    1      1      
iter:  22  21:11:04  -6.62  -4.16    -5.259328    1      1      
iter:  23  21:11:06  -6.94  -4.64    -5.259328    1      1      
iter:  24  21:11:08  -7.27  -4.99    -5.259328    1      1      
iter:  25  21:11:10  -7.61  -5.17    -5.259328    1      1      

Converged after 25 iterations.

Dipole moment: (0.005179, 0.037995, -0.004324) |e|*Ang

Energy contributions relative to reference atoms: (reference = -26392.251304)

Kinetic:        +11.843770
Potential:      -10.867445
External:        +0.000000
XC:              -6.228983
Entropy (-ST):   -0.000011
Local:           -0.006665
--------------------------
Free energy:     -5.259333
Extrapolated:    -5.259328

Fermi level: -2.49011

 Band  Eigenvalues  Occupancy
    0     -4.15206    2.00000
    1     -3.15282    2.00000
    2     -3.14696    2.00000
    3     -1.85244    0.00001
    4     -1.76339    0.00000
    5     -1.74483    0.00000
    6     -1.56055    0.00000
    7     -0.75330    0.00000
    8     -0.69761    0.00000
    9     -0.61179    0.00000

Gap: 1.295 eV
Transition (v -> c):
  (s=0, k=0, n=2, [0.00, 0.00, 0.00]) -> (s=0, k=0, n=3, [0.00, 0.00, 0.00])

Forces in eV/Ang:
  0 Na    0.00947   -0.02244   -0.01556
  1 Na   -0.00195   -0.00007   -0.00009
  2 Na   -0.00152    0.02326   -0.00588
  3 Na    0.00215   -0.00630    0.00146
  4 Na   -0.00178   -0.00825   -0.00275
  5 Na   -0.00719    0.00680    0.02665

System changes: positions 

Initializing position-dependent things.

Density initialized from wave functions
           .--------------------------------------.  
          /|                                      |  
         / |                                      |  
        /  |                                      |  
       /   |                                      |  
      /    |                                      |  
     /     |                                      |  
    /      |                                      |  
   /       |                                      |  
  /        |                                      |  
 *         |                                      |  
 |         |                                      |  
 |         |          Na                          |  
 |         |            Na                        |  
 |         |                                      |  
 |         |               Na                     |  
 |         |            Na                        |  
 |         |              Na                      |  
 |         |                                      |  
 |         |                                      |  
 |         .-------------Na-----------------------.  
 |        /                                      /   
 |       /                                      /    
 |      /                                      /     
 |     /                                      /      
 |    /                                      /       
 |   /                                      /        
 |  /                                      /         
 | /                                      /          
 |/                                      /           
 *--------------------------------------*            

Positions:
   0 Na     7.145745    9.273252    8.782883    ( 0.0000,  0.0000,  0.0000)
   1 Na     6.737417    7.081369   11.180244    ( 0.0000,  0.0000,  0.0000)
   2 Na     7.706655    6.227200    8.162053    ( 0.0000,  0.0000,  0.0000)
   3 Na     8.673433    5.211745    5.154075    ( 0.0000,  0.0000,  0.0000)
   4 Na     7.565558   11.552351    6.459159    ( 0.0000,  0.0000,  0.0000)
   5 Na     8.079783    8.521342    5.899279    ( 0.0000,  0.0000,  0.0000)

Unit cell:
           periodic     x           y           z      points  spacing
  1. axis:    no    16.000000    0.000000    0.000000    64     0.2500
  2. axis:    no     0.000000   16.000000    0.000000    64     0.2500
  3. axis:    no     0.000000    0.000000   16.000000    64     0.2500

  Lengths:  16.000000  16.000000  16.000000
  Angles:   90.000000  90.000000  90.000000

Effective grid spacing dv^(1/3) = 0.2500

                     log10-error:    total        iterations:
           time      wfs    density  energy       fermi  poisson
iter:   1  21:11:13  +0.31   +inf    -5.260995    4      1      
iter:   2  21:11:14  -0.67  -0.82    -5.178206    4      1      
iter:   3  21:11:17  -1.07  -1.22    -5.170067    3      1      
iter:   4  21:11:19  -1.54  -1.52    -5.171395    2      1      
iter:   5  21:11:21  -1.93  -1.89    -5.171865    2      1      
iter:   6  21:11:23  -2.42  -2.10    -5.172030    1      1      
iter:   7  21:11:25  -2.91  -2.29    -5.172074    2      1      
iter:   8  21:11:27  -3.42  -2.96    -5.172084    1      1      
iter:   9  21:11:29  -3.83  -3.02    -5.172089    1      1      
iter:  10  21:11:31  -4.25  -3.28    -5.172091    1      1      
iter:  11  21:11:33  -4.73  -3.53    -5.172092    1      1      
iter:  12  21:11:35  -5.15  -3.91    -5.172092    1      1      
iter:  13  21:11:37  -5.56  -4.17    -5.172092    1      1      
iter:  14  21:11:39  -5.96  -4.33    -5.172092    1      1      
iter:  15  21:11:41  -6.36  -4.40    -5.172092    1      1      
iter:  16  21:11:43  -6.70  -4.81    -5.172092    0      1      
iter:  17  21:11:44  -7.05  -4.81    -5.172092    1      1      
iter:  18  21:11:46  -7.38  -4.95    -5.172092    1      1      
iter:  19  21:11:48  -7.67  -5.23    -5.172092    1      1      

Converged after 19 iterations.

Dipole moment: (-0.009418, 0.076171, 0.019661) |e|*Ang

Energy contributions relative to reference atoms: (reference = -26392.251304)

Kinetic:        +15.471839
Potential:      -13.638905
External:        +0.000000
XC:              -6.997672
Entropy (-ST):   -0.000026
Local:           -0.007341
--------------------------
Free energy:     -5.172105
Extrapolated:    -5.172092

Fermi level: -2.51059

 Band  Eigenvalues  Occupancy
    0     -4.27064    2.00000
    1     -3.16771    2.00000
    2     -3.09632    1.99998
    3     -1.93509    0.00002
    4     -1.68280    0.00000
    5     -1.62501    0.00000
    6     -1.62005    0.00000
    7     -0.75671    0.00000
    8     -0.69301    0.00000
    9     -0.66258    0.00000

Gap: 1.161 eV
Transition (v -> c):
  (s=0, k=0, n=2, [0.00, 0.00, 0.00]) -> (s=0, k=0, n=3, [0.00, 0.00, 0.00])

Forces in eV/Ang:
  0 Na   -0.09098    0.21122    0.22453
  1 Na   -0.00585    0.00075    0.01800
  2 Na    0.02773   -0.26922    0.01962
  3 Na   -0.01567    0.07552    0.03488
  4 Na   -0.01895    0.11979    0.01186
  5 Na    0.10475   -0.14281   -0.30778

System changes: positions 

Initializing position-dependent things.

Density initialized from wave functions
           .--------------------------------------.  
          /|                                      |  
         / |                                      |  
        /  |                                      |  
       /   |                                      |  
      /    |                                      |  
     /     |                                      |  
    /      |                                      |  
   /       |                                      |  
  /        |                                      |  
 *         |                                      |  
 |         |                                      |  
 |         |          Na                          |  
 |         |            Na                        |  
 |         |                                      |  
 |         |               Na                     |  
 |         |            Na                        |  
 |         |                                      |  
 |         |              Na                      |  
 |         |                                      |  
 |         .-------------Na-----------------------.  
 |        /                                      /   
 |       /                                      /    
 |      /                                      /     
 |     /                                      /      
 |    /                                      /       
 |   /                                      /        
 |  /                                      /         
 | /                                      /          
 |/                                      /           
 *--------------------------------------*            

Positions:
   0 Na     7.090761    9.401858    8.902396    ( 0.0000,  0.0000,  0.0000)
   1 Na     6.739190    7.081813   11.187434    ( 0.0000,  0.0000,  0.0000)
   2 Na     7.720584    6.074355    8.181871    ( 0.0000,  0.0000,  0.0000)
   3 Na     8.662891    5.254161    5.164609    ( 0.0000,  0.0000,  0.0000)
   4 Na     7.561884   11.616013    6.469478    ( 0.0000,  0.0000,  0.0000)
   5 Na     8.135399    8.451736    5.724431    ( 0.0000,  0.0000,  0.0000)

Unit cell:
           periodic     x           y           z      points  spacing
  1. axis:    no    16.000000    0.000000    0.000000    64     0.2500
  2. axis:    no     0.000000   16.000000    0.000000    64     0.2500
  3. axis:    no     0.000000    0.000000   16.000000    64     0.2500

  Lengths:  16.000000  16.000000  16.000000
  Angles:   90.000000  90.000000  90.000000

Effective grid spacing dv^(1/3) = 0.2500

                     log10-error:    total        iterations:
           time      wfs    density  energy       fermi  poisson
iter:   1  21:11:51  +0.41   +inf    -5.357551    4      1      
iter:   2  21:11:53  -0.63  -0.83    -5.268752    3      1      
iter:   3  21:11:55  -1.13  -1.21    -5.257439    3      1      
iter:   4  21:11:56  -1.64  -1.53    -5.258103    2      1      
iter:   5  21:11:58  -1.95  -1.76    -5.258676    2      1      
iter:   6  21:12:00  -2.35  -2.06    -5.258896    2      1      
iter:   7  21:12:01  -2.93  -2.51    -5.258927    1      1      
iter:   8  21:12:03  -3.40  -2.74    -5.258937    1      1      
iter:   9  21:12:05  -3.88  -3.13    -5.258940    1      1      
iter:  10  21:12:06  -4.26  -3.16    -5.258943    1      1      
iter:  11  21:12:08  -4.69  -3.38    -5.258943    1      1      
iter:  12  21:12:09  -4.98  -3.55    -5.258944    1      1      
iter:  13  21:12:11  -5.57  -4.19    -5.258944    1      1      
iter:  14  21:12:13  -6.05  -4.18    -5.258944    1      1      
iter:  15  21:12:14  -6.49  -4.18    -5.258944    1      1      
iter:  16  21:12:16  -6.88  -4.47    -5.258944    1      1      
iter:  17  21:12:18  -7.29  -4.69    -5.258944    1      1      
iter:  18  21:12:19  -7.84  -4.89    -5.258944    1      1      

Converged after 18 iterations.

Dipole moment: (0.003517, 0.030651, -0.002962) |e|*Ang

Energy contributions relative to reference atoms: (reference = -26392.251304)

Kinetic:        +12.464878
Potential:      -11.343397
External:        +0.000000
XC:              -6.373481
Entropy (-ST):   -0.000012
Local:           -0.006937
--------------------------
Free energy:     -5.258950
Extrapolated:    -5.258944

Fermi level: -2.49399

 Band  Eigenvalues  Occupancy
    0     -4.17565    2.00000
    1     -3.15301    2.00000
    2     -3.13711    1.99999
    3     -1.87257    0.00001
    4     -1.73619    0.00000
    5     -1.72443    0.00000
    6     -1.57336    0.00000
    7     -0.75013    0.00000
    8     -0.72833    0.00000
    9     -0.64716    0.00000

Gap: 1.265 eV
Transition (v -> c):
  (s=0, k=0, n=2, [0.00, 0.00, 0.00]) -> (s=0, k=0, n=3, [0.00, 0.00, 0.00])

Forces in eV/Ang:
  0 Na   -0.00098    0.03291   -0.00699
  1 Na    0.00127   -0.01241   -0.00206
  2 Na   -0.00771   -0.02073    0.03727
  3 Na    0.00781   -0.01215   -0.01535
  4 Na   -0.00265   -0.02064    0.00890
  5 Na    0.00273    0.02497   -0.01786

System changes: positions 

Initializing position-dependent things.

Density initialized from wave functions
           .--------------------------------------.  
          /|                                      |  
         / |                                      |  
        /  |                                      |  
       /   |                                      |  
      /    |                                      |  
     /     |                                      |  
    /      |                                      |  
   /       |                                      |  
  /        |                                      |  
 *         |                                      |  
 |         |                                      |  
 |         |          Na                          |  
 |         |            Na                        |  
 |         |                                      |  
 |         |               Na                     |  
 |         |            Na                        |  
 |         |                                      |  
 |         |              Na                      |  
 |         |                                      |  
 |         .-------------Na-----------------------.  
 |        /                                      /   
 |       /                                      /    
 |      /                                      /     
 |     /                                      /      
 |    /                                      /       
 |   /                                      /        
 |  /                                      /         
 | /                                      /          
 |/                                      /           
 *--------------------------------------*            

Positions:
   0 Na     7.090711    9.427417    8.894872    ( 0.0000,  0.0000,  0.0000)
   1 Na     6.740241    7.071497   11.185610    ( 0.0000,  0.0000,  0.0000)
   2 Na     7.713976    6.059293    8.212581    ( 0.0000,  0.0000,  0.0000)
   3 Na     8.669519    5.243470    5.151670    ( 0.0000,  0.0000,  0.0000)
   4 Na     7.559766   11.597955    6.476742    ( 0.0000,  0.0000,  0.0000)
   5 Na     8.136866    8.473504    5.712066    ( 0.0000,  0.0000,  0.0000)

Unit cell:
           periodic     x           y           z      points  spacing
  1. axis:    no    16.000000    0.000000    0.000000    64     0.2500
  2. axis:    no     0.000000   16.000000    0.000000    64     0.2500
  3. axis:    no     0.000000    0.000000   16.000000    64     0.2500

  Lengths:  16.000000  16.000000  16.000000
  Angles:   90.000000  90.000000  90.000000

Effective grid spacing dv^(1/3) = 0.2500

                     log10-error:    total        iterations:
           time      wfs    density  energy       fermi  poisson
iter:   1  21:12:21  -1.02   +inf    -5.264713    2      1      
iter:   2  21:12:23  -2.00  -1.52    -5.260623    2      1      
iter:   3  21:12:24  -2.53  -1.99    -5.260162    2      1      
iter:   4  21:12:26  -2.62  -2.13    -5.260116    2      1      
iter:   5  21:12:28  -3.10  -2.58    -5.260139    1      1      
iter:   6  21:12:29  -3.81  -2.70    -5.260144    1      1      
iter:   7  21:12:31  -4.30  -2.87    -5.260149    1      1      
iter:   8  21:12:33  -4.68  -3.23    -5.260149    1      1      
iter:   9  21:12:34  -5.01  -3.44    -5.260150    1      1      
iter:  10  21:12:36  -5.46  -3.91    -5.260150    1      1      
iter:  11  21:12:37  -5.86  -4.10    -5.260150    1      1      
iter:  12  21:12:39  -6.28  -4.43    -5.260150    1      1      
iter:  13  21:12:41  -6.78  -4.62    -5.260150    1      1      
iter:  14  21:12:42  -7.27  -4.67    -5.260150    1      1      
iter:  15  21:12:44  -7.77  -4.72    -5.260150    1      1      

Converged after 15 iterations.

Dipole moment: (-0.000139, 0.046920, 0.001516) |e|*Ang

Energy contributions relative to reference atoms: (reference = -26392.251304)

Kinetic:        +12.225438
Potential:      -11.160455
External:        +0.000000
XC:              -6.318318
Entropy (-ST):   -0.000012
Local:           -0.006810
--------------------------
Free energy:     -5.260156
Extrapolated:    -5.260150

Fermi level: -2.49284

 Band  Eigenvalues  Occupancy
    0     -4.16725    2.00000
    1     -3.15360    2.00000
    2     -3.14098    2.00000
    3     -1.86557    0.00001
    4     -1.75387    0.00000
    5     -1.72548    0.00000
    6     -1.56943    0.00000
    7     -0.75938    0.00000
    8     -0.73090    0.00000
    9     -0.65437    0.00000

Gap: 1.275 eV
Transition (v -> c):
  (s=0, k=0, n=2, [0.00, 0.00, 0.00]) -> (s=0, k=0, n=3, [0.00, 0.00, 0.00])

Forces in eV/Ang:
  0 Na   -0.00289   -0.00428    0.01442
  1 Na   -0.00183    0.00386    0.00179
  2 Na    0.00478   -0.00797   -0.01135
  3 Na   -0.00230    0.01524    0.01066
  4 Na   -0.00352    0.01680   -0.00231
  5 Na    0.00680   -0.03048   -0.00929

System changes: positions 

Initializing position-dependent things.

Density initialized from wave functions
           .--------------------------------------.  
          /|                                      |  
         / |                                      |  
        /  |                                      |  
       /   |                                      |  
      /    |                                      |  
     /     |                                      |  
    /      |                                      |  
   /       |                                      |  
  /        |                                      |  
 *         |                                      |  
 |         |                                      |  
 |         |          Na                          |  
 |         |            Na                        |  
 |         |                                      |  
 |         |              Na                      |  
 |         |           Na                         |  
 |         |                                      |  
 |         |              Na                      |  
 |         |                                      |  
 |         .--------------Na----------------------.  
 |        /                                      /   
 |       /                                      /    
 |      /                                      /     
 |     /                                      /      
 |    /                                      /       
 |   /                                      /        
 |  /                                      /         
 | /                                      /          
 |/                                      /           
 *--------------------------------------*            

Positions:
   0 Na     7.180331    9.418494    8.999981    ( 0.0000,  0.0000,  0.0000)
   1 Na     6.626888    6.978713   11.239394    ( 0.0000,  0.0000,  0.0000)
   2 Na     7.699229    5.941386    8.280351    ( 0.0000,  0.0000,  0.0000)
   3 Na     8.771956    5.184718    5.266181    ( 0.0000,  0.0000,  0.0000)
   4 Na     7.363557   11.546906    6.456789    ( 0.0000,  0.0000,  0.0000)
   5 Na     8.241568    8.347522    5.629909    ( 0.0000,  0.0000,  0.0000)

Unit cell:
           periodic     x           y           z      points  spacing
  1. axis:    no    16.000000    0.000000    0.000000    64     0.2500
  2. axis:    no     0.000000   16.000000    0.000000    64     0.2500
  3. axis:    no     0.000000    0.000000   16.000000    64     0.2500

  Lengths:  16.000000  16.000000  16.000000
  Angles:   90.000000  90.000000  90.000000

Effective grid spacing dv^(1/3) = 0.2500

                     log10-error:    total        iterations:
           time      wfs    density  energy       fermi  poisson
iter:   1  21:12:46  +0.41   +inf    -5.419649    3      1      
iter:   2  21:12:47  -0.66  -0.68    -5.249234    3      1      
iter:   3  21:12:49  -1.16  -1.28    -5.242410    2      1      
iter:   4  21:12:51  -1.56  -1.50    -5.243282    2      1      
iter:   5  21:12:52  -1.99  -1.88    -5.243821    2      1      
iter:   6  21:12:54  -2.48  -2.08    -5.244013    2      1      
iter:   7  21:12:56  -2.95  -2.50    -5.244058    1      1      
iter:   8  21:12:57  -3.37  -2.74    -5.244070    2      1      
iter:   9  21:12:59  -3.83  -3.21    -5.244075    1      1      
iter:  10  21:13:01  -4.22  -3.27    -5.244077    1      1      
iter:  11  21:13:02  -4.61  -3.50    -5.244078    1      1      
iter:  12  21:13:04  -5.04  -3.78    -5.244078    1      1      
iter:  13  21:13:06  -5.43  -4.00    -5.244078    1      1      
iter:  14  21:13:07  -5.83  -4.25    -5.244078    1      1      
iter:  15  21:13:09  -6.21  -4.42    -5.244078    1      1      
iter:  16  21:13:10  -6.61  -4.60    -5.244078    1      1      
iter:  17  21:13:12  -6.98  -5.00    -5.244078    1      1      
iter:  18  21:13:14  -7.35  -5.11    -5.244078    0      1      
iter:  19  21:13:15  -7.74  -5.43    -5.244078    1      1      

Converged after 19 iterations.

Dipole moment: (-0.014658, 0.007715, 0.003036) |e|*Ang

Energy contributions relative to reference atoms: (reference = -26392.251304)

Kinetic:        +10.746839
Potential:      -10.006633
External:        +0.000000
XC:              -5.977895
Entropy (-ST):   -0.000011
Local:           -0.006384
--------------------------
Free energy:     -5.244084
Extrapolated:    -5.244078

Fermi level: -2.49000

 Band  Eigenvalues  Occupancy
    0     -4.11976    2.00000
    1     -3.16808    2.00000
    2     -3.13166    1.99999
    3     -1.84593    0.00001
    4     -1.78794    0.00000
    5     -1.77450    0.00000
    6     -1.54142    0.00000
    7     -0.77544    0.00000
    8     -0.75792    0.00000
    9     -0.64114    0.00000

Gap: 1.286 eV
Transition (v -> c):
  (s=0, k=0, n=2, [0.00, 0.00, 0.00]) -> (s=0, k=0, n=3, [0.00, 0.00, 0.00])

Forces in eV/Ang:
  0 Na    0.00520   -0.05109   -0.05188
  1 Na    0.01397    0.01708   -0.03522
  2 Na   -0.00431    0.06104    0.00299
  3 Na    0.01109   -0.04282   -0.01523
  4 Na    0.02054   -0.07359    0.00340
  5 Na   -0.04478    0.08402    0.09560

System changes: positions 

Initializing position-dependent things.

Density initialized from wave functions
           .--------------------------------------.  
          /|                                      |  
         / |                                      |  
        /  |                                      |  
       /   |                                      |  
      /    |                                      |  
     /     |                                      |  
    /      |                                      |  
   /       |                                      |  
  /        |                                      |  
 *         |                                      |  
 |         |                                      |  
 |         |          Na                          |  
 |         |            Na                        |  
 |         |                                      |  
 |         |              Na                      |  
 |         |            Na                        |  
 |         |                                      |  
 |         |              Na                      |  
 |         |                                      |  
 |         .--------------Na----------------------.  
 |        /                                      /   
 |       /                                      /    
 |      /                                      /     
 |     /                                      /      
 |    /                                      /       
 |   /                                      /        
 |  /                                      /         
 | /                                      /          
 |/                                      /           
 *--------------------------------------*            

Positions:
   0 Na     7.141387    9.382630    8.940443    ( 0.0000,  0.0000,  0.0000)
   1 Na     6.682026    7.034809   11.191100    ( 0.0000,  0.0000,  0.0000)
   2 Na     7.708763    6.017784    8.244144    ( 0.0000,  0.0000,  0.0000)
   3 Na     8.736620    5.199423    5.222357    ( 0.0000,  0.0000,  0.0000)
   4 Na     7.453907   11.533893    6.466064    ( 0.0000,  0.0000,  0.0000)
   5 Na     8.175734    8.417438    5.718114    ( 0.0000,  0.0000,  0.0000)

Unit cell:
           periodic     x           y           z      points  spacing
  1. axis:    no    16.000000    0.000000    0.000000    64     0.2500
  2. axis:    no     0.000000   16.000000    0.000000    64     0.2500
  3. axis:    no     0.000000    0.000000   16.000000    64     0.2500

  Lengths:  16.000000  16.000000  16.000000
  Angles:   90.000000  90.000000  90.000000

Effective grid spacing dv^(1/3) = 0.2500

                     log10-error:    total        iterations:
           time      wfs    density  energy       fermi  poisson
iter:   1  21:13:17  -0.07   +inf    -5.306032    3      1      
iter:   2  21:13:19  -1.06  -0.99    -5.264168    3      1      
iter:   3  21:13:20  -1.55  -1.45    -5.260186    2      1      
iter:   4  21:13:22  -2.00  -1.72    -5.260407    2      1      
iter:   5  21:13:24  -2.35  -2.07    -5.260585    2      1      
iter:   6  21:13:25  -2.81  -2.27    -5.260656    2      1      
iter:   7  21:13:27  -3.36  -2.54    -5.260674    1      1      
iter:   8  21:13:28  -3.86  -2.96    -5.260678    1      1      
iter:   9  21:13:30  -4.22  -3.17    -5.260680    1      1      
iter:  10  21:13:32  -4.70  -3.58    -5.260680    1      1      
iter:  11  21:13:33  -5.08  -3.60    -5.260681    1      1      
iter:  12  21:13:35  -5.43  -3.80    -5.260681    1      1      
iter:  13  21:13:36  -5.85  -4.18    -5.260681    1      1      
iter:  14  21:13:38  -6.25  -4.40    -5.260681    1      1      
iter:  15  21:13:40  -6.73  -4.71    -5.260681    1      1      
iter:  16  21:13:41  -7.14  -4.77    -5.260681    1      1      
iter:  17  21:13:43  -7.51  -4.94    -5.260681    1      1      

Converged after 17 iterations.

Dipole moment: (-0.010639, 0.030237, 0.005990) |e|*Ang

Energy contributions relative to reference atoms: (reference = -26392.251304)

Kinetic:        +12.241521
Potential:      -11.177451
External:        +0.000000
XC:              -6.318074
Entropy (-ST):   -0.000011
Local:           -0.006671
--------------------------
Free energy:     -5.260686
Extrapolated:    -5.260681

Fermi level: -2.49392

 Band  Eigenvalues  Occupancy
    0     -4.16752    2.00000
    1     -3.15539    2.00000
    2     -3.14579    2.00000
    3     -1.86310    0.00001
    4     -1.75582    0.00000
    5     -1.73578    0.00000
    6     -1.56904    0.00000
    7     -0.76665    0.00000
    8     -0.74744    0.00000
    9     -0.65351    0.00000

Gap: 1.283 eV
Transition (v -> c):
  (s=0, k=0, n=2, [0.00, 0.00, 0.00]) -> (s=0, k=0, n=3, [0.00, 0.00, 0.00])

Forces in eV/Ang:
  0 Na   -0.00288    0.00662   -0.00890
  1 Na   -0.00189   -0.00407    0.01391
  2 Na    0.00551   -0.00503   -0.01165
  3 Na    0.00083    0.00275    0.00114
  4 Na    0.00227    0.00328    0.00028
  5 Na   -0.00142   -0.01071    0.00930

System changes: positions 

Initializing position-dependent things.

Density initialized from wave functions
           .--------------------------------------.  
          /|                                      |  
         / |                                      |  
        /  |                                      |  
       /   |                                      |  
      /    |                                      |  
     /     |                                      |  
    /      |                                      |  
   /       |                                      |  
  /        |                                      |  
 *         |                                      |  
 |         |               Na                     |  
 |         |                                      |  
 |         |                     Na               |  
 |         |                                      |  
 |         |        Na   Na                       |  
 |         |                                      |  
 |         |                                      |  
 |         |                 Na                   |  
 |         |         Na                           |  
 |         .--------------------------------------.  
 |        /                                      /   
 |       /                                      /    
 |      /                                      /     
 |     /                                      /      
 |    /                                      /       
 |   /                                      /        
 |  /                                      /         
 | /                                      /          
 |/                                      /           
 *--------------------------------------*            

Positions:
   0 Na     7.260931    9.580741    7.493961    ( 0.0000,  0.0000,  0.0000)
   1 Na    10.358243   10.419606    7.991874    ( 0.0000,  0.0000,  0.0000)
   2 Na     8.389072    8.814170   10.443149    ( 0.0000,  0.0000,  0.0000)
   3 Na     6.405310    7.312331    5.318965    ( 0.0000,  0.0000,  0.0000)
   4 Na     5.945555    6.904525    8.783225    ( 0.0000,  0.0000,  0.0000)
   5 Na     9.127926    9.492149    4.829169    ( 0.0000,  0.0000,  0.0000)

Unit cell:
           periodic     x           y           z      points  spacing
  1. axis:    no    16.000000    0.000000    0.000000    64     0.2500
  2. axis:    no     0.000000   16.000000    0.000000    64     0.2500
  3. axis:    no     0.000000    0.000000   16.000000    64     0.2500

  Lengths:  16.000000  16.000000  16.000000
  Angles:   90.000000  90.000000  90.000000

Effective grid spacing dv^(1/3) = 0.2500

                     log10-error:    total        iterations:
           time      wfs    density  energy       fermi  poisson
iter:   1  21:13:45  +1.40   +inf    -7.809159    25     1      
iter:   2  21:13:47  +1.25  -0.05    -5.970499    30     1      
iter:   3  21:13:48  +1.31  -0.24    -5.327863    23     1      
iter:   4  21:13:50  +0.52  -0.52    -5.261463    29     1      
iter:   5  21:13:51  +0.18  -0.69    -5.272585    5      1      
iter:   6  21:13:53  -0.21  -0.99    -5.301989    4      1      
iter:   7  21:13:55  -0.68  -1.38    -5.312454    3      1      
iter:   8  21:13:56  -1.09  -1.53    -5.317050    1      1      
iter:   9  21:13:58  -1.44  -1.81    -5.319160    2      1      
iter:  10  21:14:00  -1.84  -1.96    -5.320065    1      1      
iter:  11  21:14:01  -2.18  -2.25    -5.320480    2      1      
iter:  12  21:14:03  -2.54  -2.44    -5.320657    2      1      
iter:  13  21:14:04  -2.87  -2.76    -5.320739    1      1      
iter:  14  21:14:06  -3.20  -2.85    -5.320778    1      1      
iter:  15  21:14:08  -3.53  -3.22    -5.320795    1      1      
iter:  16  21:14:09  -3.86  -3.44    -5.320802    1      1      
iter:  17  21:14:11  -4.19  -3.69    -5.320806    1      1      
iter:  18  21:14:12  -4.56  -3.83    -5.320807    1      1      
iter:  19  21:14:14  -4.86  -3.76    -5.320808    1      1      
iter:  20  21:14:16  -5.25  -3.50    -5.320808    1      1      
iter:  21  21:14:17  -5.57  -3.91    -5.320808    1      1      
iter:  22  21:14:19  -5.90  -4.27    -5.320809    1      1      
iter:  23  21:14:20  -6.26  -4.72    -5.320809    1      1      
iter:  24  21:14:22  -6.60  -4.86    -5.320809    1      1      
iter:  25  21:14:24  -6.92  -4.98    -5.320809    1      1      
iter:  26  21:14:25  -7.24  -5.39    -5.320809    1      1      
iter:  27  21:14:27  -7.54  -5.46    -5.320809    1      1      

Converged after 27 iterations.

Dipole moment: (0.091413, -0.094205, -0.032202) |e|*Ang

Energy contributions relative to reference atoms: (reference = -26392.251304)

Kinetic:        +11.908142
Potential:      -10.769152
External:        +0.000000
XC:              -6.452265
Entropy (-ST):   -0.000037
Local:           -0.007515
--------------------------
Free energy:     -5.320827
Extrapolated:    -5.320809

Fermi level: -2.50665

 Band  Eigenvalues  Occupancy
    0     -4.27570    2.00000
    1     -3.10000    1.99999
    2     -3.09614    1.99998
    3     -1.94700    0.00003
    4     -1.77584    0.00000
    5     -1.76722    0.00000
    6     -1.45451    0.00000
    7     -0.86309    0.00000
    8     -0.84765    0.00000
    9     -0.42649    0.00000

Gap: 1.149 eV
Transition (v -> c):
  (s=0, k=0, n=2, [0.00, 0.00, 0.00]) -> (s=0, k=0, n=3, [0.00, 0.00, 0.00])

Forces in eV/Ang:
  0 Na   -0.01475    0.01609   -0.00525
  1 Na   -0.00458   -0.01037    0.00125
  2 Na    0.00378   -0.00361   -0.00851
  3 Na    0.00881    0.00182    0.00961
  4 Na    0.00962   -0.00089   -0.00394
  5 Na   -0.00267   -0.00678    0.01416

System changes: positions 

Initializing position-dependent things.

Density initialized from wave functions
           .--------------------------------------.  
          /|                                      |  
         / |                                      |  
        /  |                                      |  
       /   |                                      |  
      /    |                                      |  
     /     |                                      |  
    /      |                                      |  
   /       |                                      |  
  /        |                                      |  
 *         |                                      |  
 |         |                                      |  
 |         |               Na                     |  
 |         |                                      |  
 |         |                     Na               |  
 |         |        Na  Na                        |  
 |         |                                      |  
 |         |                                      |  
 |         |                 Na                   |  
 |         |         Na                           |  
 |         .--------------------------------------.  
 |        /                                      /   
 |       /                                      /    
 |      /                                      /     
 |     /                                      /      
 |    /                                      /       
 |   /                                      /        
 |  /                                      /         
 | /                                      /          
 |/                                      /           
 *--------------------------------------*            

Positions:
   0 Na     7.095292    9.761405    7.434973    ( 0.0000,  0.0000,  0.0000)
   1 Na    10.306834   10.303230    8.005867    ( 0.0000,  0.0000,  0.0000)
   2 Na     8.431520    8.773611   10.347638    ( 0.0000,  0.0000,  0.0000)
   3 Na     6.504200    7.332717    5.426840    ( 0.0000,  0.0000,  0.0000)
   4 Na     6.053606    6.894480    8.738955    ( 0.0000,  0.0000,  0.0000)
   5 Na     9.097923    9.416028    4.988084    ( 0.0000,  0.0000,  0.0000)

Unit cell:
           periodic     x           y           z      points  spacing
  1. axis:    no    16.000000    0.000000    0.000000    64     0.2500
  2. axis:    no     0.000000   16.000000    0.000000    64     0.2500
  3. axis:    no     0.000000    0.000000   16.000000    64     0.2500

  Lengths:  16.000000  16.000000  16.000000
  Angles:   90.000000  90.000000  90.000000

Effective grid spacing dv^(1/3) = 0.2500

                     log10-error:    total        iterations:
           time      wfs    density  energy       fermi  poisson
iter:   1  21:14:29  +0.32   +inf    -5.380568    3      1      
iter:   2  21:14:31  -0.61  -0.84    -5.312875    4      1      
iter:   3  21:14:32  -1.02  -1.23    -5.304991    3      1      
iter:   4  21:14:34  -1.47  -1.47    -5.305178    2      1      
iter:   5  21:14:36  -2.01  -1.83    -5.305463    2      1      
iter:   6  21:14:37  -2.82  -2.19    -5.305473    2      1      
iter:   7  21:14:39  -3.28  -2.59    -5.305501    2      1      
iter:   8  21:14:40  -3.81  -2.84    -5.305508    2      1      
iter:   9  21:14:42  -4.20  -3.09    -5.305512    1      1      
iter:  10  21:14:44  -4.73  -3.49    -5.305513    1      1      
iter:  11  21:14:45  -5.18  -3.66    -5.305513    1      1      
iter:  12  21:14:47  -5.50  -3.83    -5.305513    1      1      
iter:  13  21:14:48  -6.03  -4.25    -5.305513    1      1      
iter:  14  21:14:50  -6.51  -4.33    -5.305513    1      1      
iter:  15  21:14:51  -6.91  -4.49    -5.305513    1      1      
iter:  16  21:14:53  -7.31  -4.69    -5.305513    1      1      
iter:  17  21:14:55  -7.64  -4.93    -5.305513    1      1      

Converged after 17 iterations.

Dipole moment: (0.065691, -0.070733, -0.037256) |e|*Ang

Energy contributions relative to reference atoms: (reference = -26392.251304)

Kinetic:        +13.677680
Potential:      -12.133470
External:        +0.000000
XC:              -6.842618
Entropy (-ST):   -0.000112
Local:           -0.007048
--------------------------
Free energy:     -5.305569
Extrapolated:    -5.305513

Fermi level: -2.57530

 Band  Eigenvalues  Occupancy
    0     -4.36076    2.00000
    1     -3.11665    1.99996
    2     -3.09653    1.99994
    3     -2.07958    0.00010
    4     -1.73462    0.00000
    5     -1.71973    0.00000
    6     -1.45414    0.00000
    7     -0.93653    0.00000
    8     -0.92368    0.00000
    9     -0.35751    0.00000

Gap: 1.017 eV
Transition (v -> c):
  (s=0, k=0, n=2, [0.00, 0.00, 0.00]) -> (s=0, k=0, n=3, [0.00, 0.00, 0.00])

Forces in eV/Ang:
  0 Na    0.00056    0.00032    0.10133
  1 Na    0.02559    0.03186    0.01385
  2 Na   -0.02590   -0.00297    0.01311
  3 Na   -0.04949   -0.05784   -0.06111
  4 Na   -0.01455    0.00303    0.03668
  5 Na    0.06367    0.02222   -0.09628

System changes: positions 

Initializing position-dependent things.

Density initialized from wave functions
           .--------------------------------------.  
          /|                                      |  
         / |                                      |  
        /  |                                      |  
       /   |                                      |  
      /    |                                      |  
     /     |                                      |  
    /      |                                      |  
   /       |                                      |  
  /        |                                      |  
 *         |                                      |  
 |         |                                      |  
 |         |               Na                     |  
 |         |                     Na               |  
 |         |            Na                        |  
 |         |        Na                            |  
 |         |                                      |  
 |         |                                      |  
 |         |                 Na                   |  
 |         |         Na                           |  
 |         .--------------------------------------.  
 |        /                                      /   
 |       /                                      /    
 |      /                                      /     
 |     /                                      /      
 |    /                                      /       
 |   /                                      /        
 |  /                                      /         
 | /                                      /          
 |/                                      /           
 *--------------------------------------*            

Positions:
   0 Na     6.988651    9.880044    7.650463    ( 0.0000,  0.0000,  0.0000)
   1 Na    10.337439   10.307178    8.049696    ( 0.0000,  0.0000,  0.0000)
   2 Na     8.394299    8.739700   10.318210    ( 0.0000,  0.0000,  0.0000)
   3 Na     6.444660    7.201046    5.344029    ( 0.0000,  0.0000,  0.0000)
   4 Na     6.087612    6.895530    8.802004    ( 0.0000,  0.0000,  0.0000)
   5 Na     9.237926    9.422063    4.850423    ( 0.0000,  0.0000,  0.0000)

Unit cell:
           periodic     x           y           z      points  spacing
  1. axis:    no    16.000000    0.000000    0.000000    64     0.2500
  2. axis:    no     0.000000   16.000000    0.000000    64     0.2500
  3. axis:    no     0.000000    0.000000   16.000000    64     0.2500

  Lengths:  16.000000  16.000000  16.000000
  Angles:   90.000000  90.000000  90.000000

Effective grid spacing dv^(1/3) = 0.2500

                     log10-error:    total        iterations:
           time      wfs    density  energy       fermi  poisson
iter:   1  21:14:57  +0.57   +inf    -5.519812    5      1      
iter:   2  21:14:58  -0.50  -0.63    -5.270491    3      1      
iter:   3  21:15:00  -1.06  -1.13    -5.257968    3      1      
iter:   4  21:15:01  -1.05  -1.30    -5.256104    3      1      
iter:   5  21:15:03  -1.56  -1.78    -5.257025    2      1      
iter:   6  21:15:05  -2.42  -1.87    -5.257194    2      1      
iter:   7  21:15:06  -2.82  -2.17    -5.257355    2      1      
iter:   8  21:15:08  -2.93  -2.50    -5.257373    2      1      
iter:   9  21:15:09  -3.55  -2.86    -5.257381    2      1      
iter:  10  21:15:11  -4.05  -2.97    -5.257384    2      1      
iter:  11  21:15:13  -4.34  -3.14    -5.257386    1      1      
iter:  12  21:15:14  -4.87  -3.47    -5.257387    2      1      
iter:  13  21:15:16  -5.34  -3.90    -5.257387    1      1      
iter:  14  21:15:17  -5.73  -3.91    -5.257387    1      1      
iter:  15  21:15:19  -6.13  -4.23    -5.257387    1      1      
iter:  16  21:15:21  -6.44  -4.45    -5.257387    1      1      
iter:  17  21:15:22  -6.78  -4.68    -5.257387    1      1      
iter:  18  21:15:24  -7.15  -4.69    -5.257387    1      1      
iter:  19  21:15:25  -7.09  -4.68    -5.257387    1      1      
iter:  20  21:15:27  -7.71  -4.32    -5.257387    1      1      

Converged after 20 iterations.

Dipole moment: (0.043024, -0.038677, -0.010681) |e|*Ang

Energy contributions relative to reference atoms: (reference = -26392.251304)

Kinetic:        +10.119753
Potential:       -9.309121
External:        +0.000000
XC:              -6.061186
Entropy (-ST):   -0.000220
Local:           -0.006722
--------------------------
Free energy:     -5.257497
Extrapolated:    -5.257387

Fermi level: -2.58393

 Band  Eigenvalues  Occupancy
    0     -4.27899    2.00000
    1     -3.08221    1.99991
    2     -3.07190    1.99988
    3     -2.12567    0.00021
    4     -1.78427    0.00000
    5     -1.70653    0.00000
    6     -1.41955    0.00000
    7     -0.96207    0.00000
    8     -0.95648    0.00000
    9     -0.40765    0.00000

Gap: 0.946 eV
Transition (v -> c):
  (s=0, k=0, n=2, [0.00, 0.00, 0.00]) -> (s=0, k=0, n=3, [0.00, 0.00, 0.00])

Forces in eV/Ang:
  0 Na    0.10990   -0.12464   -0.16587
  1 Na   -0.03349    0.01479   -0.06210
  2 Na    0.03395    0.01703    0.09368
  3 Na    0.05928    0.12111    0.07427
  4 Na   -0.05313   -0.01700   -0.05879
  5 Na   -0.11592   -0.01278    0.12430

System changes: positions 

Initializing position-dependent things.

Density initialized from wave functions
           .--------------------------------------.  
          /|                                      |  
         / |                                      |  
        /  |                                      |  
       /   |                                      |  
      /    |                                      |  
     /     |                                      |  
    /      |                                      |  
   /       |                                      |  
  /        |                                      |  
 *         |                                      |  
 |         |               Na                     |  
 |         |                                      |  
 |         |                                      |  
 |         |                     Na               |  
 |         |        Na   Na                       |  
 |         |                                      |  
 |         |                                      |  
 |         |                 Na                   |  
 |         |         Na                           |  
 |         .--------------------------------------.  
 |        /                                      /   
 |       /                                      /    
 |      /                                      /     
 |     /                                      /      
 |    /                                      /       
 |   /                                      /        
 |  /                                      /         
 | /                                      /          
 |/                                      /           
 *--------------------------------------*            

Positions:
   0 Na     7.167167    9.682400    7.510338    ( 0.0000,  0.0000,  0.0000)
   1 Na    10.335720   10.369718    7.997537    ( 0.0000,  0.0000,  0.0000)
   2 Na     8.404079    8.783709   10.416126    ( 0.0000,  0.0000,  0.0000)
   3 Na     6.446409    7.301905    5.358505    ( 0.0000,  0.0000,  0.0000)
   4 Na     5.995975    6.893830    8.770933    ( 0.0000,  0.0000,  0.0000)
   5 Na     9.139656    9.452943    4.885157    ( 0.0000,  0.0000,  0.0000)

Unit cell:
           periodic     x           y           z      points  spacing
  1. axis:    no    16.000000    0.000000    0.000000    64     0.2500
  2. axis:    no     0.000000   16.000000    0.000000    64     0.2500
  3. axis:    no     0.000000    0.000000   16.000000    64     0.2500

  Lengths:  16.000000  16.000000  16.000000
  Angles:   90.000000  90.000000  90.000000

Effective grid spacing dv^(1/3) = 0.2500

                     log10-error:    total        iterations:
           time      wfs    density  energy       fermi  poisson
iter:   1  21:15:29  +0.31   +inf    -5.445123    3      1      
iter:   2  21:15:31  -0.69  -0.77    -5.322397    3      1      
iter:   3  21:15:32  -1.19  -1.33    -5.321394    2      1      
iter:   4  21:15:34  -1.59  -1.46    -5.322368    2      1      
iter:   5  21:15:35  -2.02  -1.86    -5.322849    2      1      
iter:   6  21:15:37  -2.57  -2.13    -5.322980    2      1      
iter:   7  21:15:38  -3.08  -2.46    -5.323013    1      1      
iter:   8  21:15:40  -3.50  -2.80    -5.323024    1      1      
iter:   9  21:15:42  -3.92  -3.03    -5.323028    1      1      
iter:  10  21:15:43  -4.29  -3.19    -5.323030    1      1      
iter:  11  21:15:45  -4.70  -3.59    -5.323031    1      1      
iter:  12  21:15:46  -5.10  -3.70    -5.323031    1      1      
iter:  13  21:15:48  -5.50  -3.91    -5.323031    1      1      
iter:  14  21:15:50  -5.96  -4.31    -5.323031    1      1      
iter:  15  21:15:51  -6.39  -4.52    -5.323031    1      1      
iter:  16  21:15:53  -6.81  -4.73    -5.323031    1      1      
iter:  17  21:15:55  -7.18  -4.82    -5.323031    1      1      
iter:  18  21:15:56  -7.59  -5.15    -5.323031    1      1      

Converged after 18 iterations.

Dipole moment: (0.080904, -0.083977, -0.028109) |e|*Ang

Energy contributions relative to reference atoms: (reference = -26392.251304)

Kinetic:        +11.994201
Potential:      -10.827113
External:        +0.000000
XC:              -6.482811
Entropy (-ST):   -0.000066
Local:           -0.007275
--------------------------
Free energy:     -5.323064
Extrapolated:    -5.323031

Fermi level: -2.53799

 Band  Eigenvalues  Occupancy
    0     -4.29816    2.00000
    1     -3.10047    1.99997
    2     -3.09482    1.99997
    3     -2.01250    0.00005
    4     -1.76027    0.00000
    5     -1.75033    0.00000
    6     -1.44664    0.00000
    7     -0.90822    0.00000
    8     -0.90527    0.00000
    9     -0.41896    0.00000

Gap: 1.082 eV
Transition (v -> c):
  (s=0, k=0, n=2, [0.00, 0.00, 0.00]) -> (s=0, k=0, n=3, [0.00, 0.00, 0.00])

Forces in eV/Ang:
  0 Na    0.01125   -0.01306   -0.00666
  1 Na   -0.00144    0.00021    0.00525
  2 Na   -0.00280    0.00217   -0.00300
  3 Na    0.00306    0.00593    0.00395
  4 Na   -0.00016    0.00124    0.00186
  5 Na   -0.00866    0.00127    0.00632

System changes: positions 

Initializing position-dependent things.

Density initialized from wave functions
           .--------------------------------------.  
          /|                                      |  
         / |                                      |  
        /  |                                      |  
       /   |                                      |  
      /    |                                      |  
     /     |                                      |  
    /      |                                      |  
   /       |                                      |  
  /        |                                      |  
 *         |                                      |  
 |         |                                      |  
 |         |          Na                          |  
 |         |            Na                        |  
 |         |                                      |  
 |         |              Na                      |  
 |         |            Na                        |  
 |         |                                      |  
 |         |              Na                      |  
 |         |                                      |  
 |         .--------------Na----------------------.  
 |        /                                      /   
 |       /                                      /    
 |      /                                      /     
 |     /                                      /      
 |    /                                      /       
 |   /                                      /        
 |  /                                      /         
 | /                                      /          
 |/                                      /           
 *--------------------------------------*            

Positions:
   0 Na     7.141387    9.382630    8.940443    ( 0.0000,  0.0000,  0.0000)
   1 Na     6.682026    7.034809   11.191100    ( 0.0000,  0.0000,  0.0000)
   2 Na     7.708763    6.017784    8.244144    ( 0.0000,  0.0000,  0.0000)
   3 Na     8.736620    5.199423    5.222357    ( 0.0000,  0.0000,  0.0000)
   4 Na     7.453907   11.533893    6.466064    ( 0.0000,  0.0000,  0.0000)
   5 Na     8.175734    8.417438    5.718114    ( 0.0000,  0.0000,  0.0000)

Unit cell:
           periodic     x           y           z      points  spacing
  1. axis:    no    16.000000    0.000000    0.000000    64     0.2500
  2. axis:    no     0.000000   16.000000    0.000000    64     0.2500
  3. axis:    no     0.000000    0.000000   16.000000    64     0.2500

  Lengths:  16.000000  16.000000  16.000000
  Angles:   90.000000  90.000000  90.000000

Effective grid spacing dv^(1/3) = 0.2500

                     log10-error:    total        iterations:
           time      wfs    density  energy       fermi  poisson
iter:   1  21:15:58  +1.36   +inf    -8.426674    18     1      
iter:   2  21:16:00  +0.96  -0.03    -6.018053    19     1      
iter:   3  21:16:01  +1.08  -0.24    -5.263235    27     1      
iter:   4  21:16:03  +0.23  -0.62    -5.234746    6      1      
iter:   5  21:16:05  -0.05  -0.78    -5.243345    5      1      
iter:   6  21:16:06  -0.45  -1.23    -5.254909    2      1      
iter:   7  21:16:08  -0.95  -1.42    -5.258214    2      1      
iter:   8  21:16:10  -1.47  -1.60    -5.259516    2      1      
iter:   9  21:16:11  -1.83  -2.01    -5.260147    1      1      
iter:  10  21:16:13  -2.25  -2.12    -5.260484    2      1      
iter:  11  21:16:14  -2.60  -2.54    -5.260586    1      1      
iter:  12  21:16:16  -2.93  -2.68    -5.260638    2      1      
iter:  13  21:16:17  -3.29  -3.04    -5.260661    1      1      
iter:  14  21:16:19  -3.66  -3.16    -5.260672    1      1      
iter:  15  21:16:20  -4.02  -3.31    -5.260677    1      1      
iter:  16  21:16:22  -4.34  -3.70    -5.260679    1      1      
iter:  17  21:16:23  -4.69  -3.62    -5.260680    1      1      
iter:  18  21:16:25  -5.02  -3.69    -5.260680    1      1      
iter:  19  21:16:26  -5.21  -3.58    -5.260681    1      1      
iter:  20  21:16:28  -5.75  -3.40    -5.260681    1      1      
iter:  21  21:16:29  -6.11  -3.56    -5.260681    1      1      
iter:  22  21:16:31  -6.57  -3.97    -5.260681    1      1      
iter:  23  21:16:32  -6.89  -4.14    -5.260681    1      1      
iter:  24  21:16:34  -7.17  -4.43    -5.260681    1      1      
iter:  25  21:16:35  -7.50  -4.69    -5.260681    1      1      

Converged after 25 iterations.

Dipole moment: (-0.010652, 0.030232, 0.006002) |e|*Ang

Energy contributions relative to reference atoms: (reference = -26392.251304)

Kinetic:        +12.241502
Potential:      -11.177437
External:        +0.000000
XC:              -6.318064
Entropy (-ST):   -0.000011
Local:           -0.006676
--------------------------
Free energy:     -5.260686
Extrapolated:    -5.260681

Fermi level: -2.49390

 Band  Eigenvalues  Occupancy
    0     -4.16752    2.00000
    1     -3.15540    2.00000
    2     -3.14579    2.00000
    3     -1.86307    0.00001
    4     -1.75569    0.00000
    5     -1.73565    0.00000
    6     -1.56854    0.00000
    7     -0.75871    0.00000
    8     -0.72876    0.00000
    9     -0.61142    0.00000

Gap: 1.283 eV
Transition (v -> c):
  (s=0, k=0, n=2, [0.00, 0.00, 0.00]) -> (s=0, k=0, n=3, [0.00, 0.00, 0.00])
System changes: positions 

Initializing position-dependent things.

Density initialized from wave functions
           .--------------------------------------.  
          /|                                      |  
         / |                                      |  
        /  |                                      |  
       /   |                                      |  
      /    |                                      |  
     /     |                                      |  
    /      |                                      |  
   /       |                                      |  
  /        |                                      |  
 *         |                                      |  
 |         |               Na                     |  
 |         |                                      |  
 |         |                                      |  
 |         |                     Na               |  
 |         |        Na   Na                       |  
 |         |                                      |  
 |         |                                      |  
 |         |                 Na                   |  
 |         |         Na                           |  
 |         .--------------------------------------.  
 |        /                                      /   
 |       /                                      /    
 |      /                                      /     
 |     /                                      /      
 |    /                                      /       
 |   /                                      /        
 |  /                                      /         
 | /                                      /          
 |/                                      /           
 *--------------------------------------*            

Positions:
   0 Na     7.167167    9.682400    7.510338    ( 0.0000,  0.0000,  0.0000)
   1 Na    10.335720   10.369718    7.997537    ( 0.0000,  0.0000,  0.0000)
   2 Na     8.404079    8.783709   10.416126    ( 0.0000,  0.0000,  0.0000)
   3 Na     6.446409    7.301905    5.358505    ( 0.0000,  0.0000,  0.0000)
   4 Na     5.995975    6.893830    8.770933    ( 0.0000,  0.0000,  0.0000)
   5 Na     9.139656    9.452943    4.885157    ( 0.0000,  0.0000,  0.0000)

Unit cell:
           periodic     x           y           z      points  spacing
  1. axis:    no    16.000000    0.000000    0.000000    64     0.2500
  2. axis:    no     0.000000   16.000000    0.000000    64     0.2500
  3. axis:    no     0.000000    0.000000   16.000000    64     0.2500

  Lengths:  16.000000  16.000000  16.000000
  Angles:   90.000000  90.000000  90.000000

Effective grid spacing dv^(1/3) = 0.2500

                     log10-error:    total        iterations:
           time      wfs    density  energy       fermi  poisson
iter:   1  21:16:37  +1.45   +inf    -7.762987    22     1      
iter:   2  21:16:39  +1.25  -0.05    -6.059858    30     1      
iter:   3  21:16:40  +1.24  -0.26    -5.326100    20     1      
iter:   4  21:16:42  +0.37  -0.54    -5.274582    8      1      
iter:   5  21:16:43  +0.13  -0.74    -5.286749    6      1      
iter:   6  21:16:45  -0.27  -1.13    -5.309411    3      1      
iter:   7  21:16:46  -0.77  -1.36    -5.316571    2      1      
iter:   8  21:16:48  -1.22  -1.52    -5.320330    2      1      
iter:   9  21:16:49  -1.56  -1.95    -5.321664    2      1      
iter:  10  21:16:51  -1.89  -2.00    -5.322448    2      1      
iter:  11  21:16:52  -2.21  -2.42    -5.322764    2      1      
iter:  12  21:16:54  -2.56  -2.70    -5.322900    2      1      
iter:  13  21:16:55  -2.89  -2.72    -5.322968    1      1      
iter:  14  21:16:57  -3.21  -2.78    -5.323001    1      1      
iter:  15  21:16:58  -3.53  -3.09    -5.323017    1      1      
iter:  16  21:17:00  -3.85  -3.20    -5.323025    1      1      
iter:  17  21:17:01  -4.18  -3.49    -5.323028    1      1      
iter:  18  21:17:03  -4.49  -3.67    -5.323030    1      1      
iter:  19  21:17:04  -4.80  -3.97    -5.323031    1      1      
iter:  20  21:17:06  -5.14  -4.24    -5.323031    1      1      
iter:  21  21:17:07  -5.47  -4.21    -5.323031    1      1      
iter:  22  21:17:09  -5.77  -4.10    -5.323031    1      1      
iter:  23  21:17:10  -6.11  -3.94    -5.323031    1      1      
iter:  24  21:17:12  -6.43  -3.89    -5.323031    1      1      
iter:  25  21:17:13  -6.79  -3.93    -5.323031    1      1      
iter:  26  21:17:15  -7.07  -4.06    -5.323031    1      1      
iter:  27  21:17:16  -7.42  -4.41    -5.323031    1      1      

Converged after 27 iterations.

Dipole moment: (0.080905, -0.084017, -0.028089) |e|*Ang

Energy contributions relative to reference atoms: (reference = -26392.251304)

Kinetic:        +11.993981
Potential:      -10.826924
External:        +0.000000
XC:              -6.482798
Entropy (-ST):   -0.000066
Local:           -0.007257
--------------------------
Free energy:     -5.323064
Extrapolated:    -5.323031

Fermi level: -2.53799

 Band  Eigenvalues  Occupancy
    0     -4.29816    2.00000
    1     -3.10047    1.99997
    2     -3.09481    1.99997
    3     -2.01250    0.00005
    4     -1.76026    0.00000
    5     -1.75027    0.00000
    6     -1.44658    0.00000
    7     -0.90057    0.00000
    8     -0.89279    0.00000
    9     -0.42168    0.00000

Gap: 1.082 eV
Transition (v -> c):
  (s=0, k=0, n=2, [0.00, 0.00, 0.00]) -> (s=0, k=0, n=3, [0.00, 0.00, 0.00])
Timing:                                      incl.     excl.
-------------------------------------------------------------------
Density initialized from wave functions:     1.134     1.133   0.2% |
 Symmetrize density:                         0.000     0.000   0.0% |
Forces:                                      1.311     1.311   0.3% |
Hamiltonian:                                 9.815     0.002   0.0% |
 Atomic:                                     1.033     0.015   0.0% |
  XC Correction:                             1.019     1.019   0.2% |
 Calculate atomic Hamiltonians:              0.090     0.090   0.0% |
 Communicate:                                0.000     0.000   0.0% |
 Hartree integrate/restrict:                 0.636     0.636   0.1% |
 Initialize Hamiltonian:                     0.001     0.001   0.0% |
 Poisson:                                    3.507     0.202   0.0% |
  Communicate bwd 0:                         0.422     0.422   0.1% |
  Communicate bwd 1:                         0.265     0.265   0.1% |
  Communicate fwd 0:                         0.373     0.373   0.1% |
  Communicate fwd 1:                         0.427     0.427   0.1% |
  fft:                                       0.544     0.544   0.1% |
  fft2:                                      1.273     1.273   0.3% |
 XC 3D grid:                                 4.457     4.457   0.9% |
 vbar:                                       0.089     0.089   0.0% |
LCAO initialization:                         0.147     0.018   0.0% |
 LCAO eigensolver:                           0.054     0.000   0.0% |
  Calculate projections:                     0.000     0.000   0.0% |
  DenseAtomicCorrection:                     0.000     0.000   0.0% |
  Distribute overlap matrix:                 0.000     0.000   0.0% |
  Orbital Layouts:                           0.002     0.002   0.0% |
  Potential matrix:                          0.052     0.052   0.0% |
 LCAO to grid:                               0.055     0.055   0.0% |
 Set positions (LCAO WFS):                   0.019     0.004   0.0% |
  Basic WFS set positions:                   0.000     0.000   0.0% |
  Basis functions set positions:             0.000     0.000   0.0% |
  P tci:                                     0.011     0.011   0.0% |
  ST tci:                                    0.003     0.003   0.0% |
  mktci:                                     0.001     0.001   0.0% |
Redistribute:                                0.008     0.008   0.0% |
SCF-cycle:                                 466.072    10.648   2.2% ||
 Davidson:                                 237.337   112.041  23.1% |--------|
  Apply hamiltonian:                        24.867    24.867   5.1% |-|
  Subspace diag:                            30.281     0.038   0.0% |
   calc_h_matrix:                           26.494     1.578   0.3% |
    Apply hamiltonian:                      24.916    24.916   5.1% |-|
   diagonalize:                              0.068     0.068   0.0% |
   rotate_psi:                               3.681     3.681   0.8% |
  calc. matrices:                           62.578    12.852   2.7% ||
   Apply hamiltonian:                       49.726    49.726  10.3% |---|
  diagonalize:                               0.195     0.195   0.0% |
  rotate_psi:                                7.375     7.375   1.5% ||
 Density:                                   24.085     0.008   0.0% |
  Atomic density matrices:                   0.251     0.251   0.1% |
  Mix:                                      22.380    22.380   4.6% |-|
  Multipole moments:                         0.063     0.063   0.0% |
  Pseudo density:                            1.383     1.377   0.3% |
   Symmetrize density:                       0.006     0.006   0.0% |
 Hamiltonian:                              193.720     0.036   0.0% |
  Atomic:                                   20.465     0.286   0.1% |
   XC Correction:                           20.179    20.179   4.2% |-|
  Calculate atomic Hamiltonians:             1.800     1.800   0.4% |
  Communicate:                               0.004     0.004   0.0% |
  Hartree integrate/restrict:               13.156    13.156   2.7% ||
  Poisson:                                  68.717     3.869   0.8% |
   Communicate bwd 0:                        8.247     8.247   1.7% ||
   Communicate bwd 1:                        5.198     5.198   1.1% |
   Communicate fwd 0:                        7.160     7.160   1.5% ||
   Communicate fwd 1:                        8.451     8.451   1.7% ||
   fft:                                     10.539    10.539   2.2% ||
   fft2:                                    25.253    25.253   5.2% |-|
  XC 3D grid:                               87.915    87.915  18.2% |------|
  vbar:                                      1.626     1.626   0.3% |
 Orthonormalize:                             0.281     0.002   0.0% |
  calc_s_matrix:                             0.087     0.087   0.0% |
  inverse-cholesky:                          0.005     0.005   0.0% |
  projections:                               0.067     0.067   0.0% |
  rotate_psi_s:                              0.121     0.121   0.0% |
Set symmetry:                                0.001     0.001   0.0% |
Other:                                       5.595     5.595   1.2% |
-------------------------------------------------------------------
Total:                                               484.082 100.0%

Memory usage: 457.75 MiB
Date: Wed Feb  5 21:17:17 2020
