
  ___ ___ ___ _ _ _  
 |   |   |_  | | | | 
 | | | | | . | | | | 
 |__ |  _|___|_____|  19.8.1
 |___|_|             

User:   erik@HP-OMEN
Date:   Mon Mar 16 14:43:04 2020
Arch:   x86_64
Pid:    9259
Python: 3.7.5
gpaw:   /home/erik/.local/lib/python3.7/site-packages/gpaw
_gpaw:  /home/erik/.local/lib/python3.7/site-packages/
        _gpaw.cpython-37m-x86_64-linux-gnu.so
ase:    /home/erik/anaconda3/lib/python3.7/site-packages/ase (version 3.19.0)
numpy:  /home/erik/anaconda3/lib/python3.7/site-packages/numpy (version 1.17.4)
scipy:  /home/erik/anaconda3/lib/python3.7/site-packages/scipy (version 1.3.2)
libxc:  3.0.0
units:  Angstrom and eV
cores:  1

Input parameters:
  kpts: [8 8 8]
  mode: {ecut: 300.0,
         gammacentered: False,
         name: pw}
  occupations: {name: fermi-dirac,
                width: 0.01}
  random: True
  xc: PBE

System changes: positions, numbers, cell, pbc, initial_charges, initial_magmoms 

Initialize ...

Si-setup:
  name: Silicon
  id: ee77bee481871cc2cb65ac61239ccafa
  Z: 14
  valence: 4
  core: 10
  charge: 0.0
  file: /usr/bin/gpaw-setups-0.9.20000/Si.PBE.gz
  compensation charges: gauss, rc=0.33, lmax=2
  cutoffs: 1.86(filt), 2.06(core),
  valence states:
                energy  radius
    3s(2.00)   -10.812   1.058
    3p(2.00)    -4.081   1.058
    *s          16.399   1.058
    *p          23.130   1.058
    *d           0.000   1.058

  Using partial waves for Si as LCAO basis

Reference energy: -15772.688500

Spin-paired calculation

Occupation numbers:
  Fermi-Dirac: width=0.0100 eV

Convergence criteria:
  Maximum total energy change: 0.0005 eV / electron
  Maximum integral of absolute density change: 0.0001 electrons
  Maximum integral of absolute eigenstate change: 4e-08 eV^2
  Maximum number of iterations: 333

Symmetries present (total): 24

  ( 1  0  0)  ( 1  0  0)  ( 1  0 -1)  ( 1  0 -1)  ( 1 -1  0)  ( 1 -1  0)
  ( 0  1  0)  ( 0  0  1)  ( 0  1 -1)  ( 0  0 -1)  ( 0 -1  1)  ( 0 -1  0)
  ( 0  0  1)  ( 0  1  0)  ( 0  0 -1)  ( 0  1 -1)  ( 0 -1  0)  ( 0 -1  1)

  ( 0  1  0)  ( 0  1  0)  ( 0  1 -1)  ( 0  1 -1)  ( 0  0  1)  ( 0  0  1)
  ( 1  0  0)  ( 0  0  1)  ( 1  0 -1)  ( 0  0 -1)  ( 1  0  0)  ( 0  1  0)
  ( 0  0  1)  ( 1  0  0)  ( 0  0 -1)  ( 1  0 -1)  ( 0  1  0)  ( 1  0  0)

  ( 0  0 -1)  ( 0  0 -1)  ( 0 -1  1)  ( 0 -1  1)  ( 0 -1  0)  ( 0 -1  0)
  ( 1  0 -1)  ( 0  1 -1)  ( 1 -1  0)  ( 0 -1  0)  ( 1 -1  0)  ( 0 -1  1)
  ( 0  1 -1)  ( 1  0 -1)  ( 0 -1  0)  ( 1 -1  0)  ( 0 -1  1)  ( 1 -1  0)

  (-1  1  0)  (-1  1  0)  (-1  0  1)  (-1  0  1)  (-1  0  0)  (-1  0  0)
  (-1  0  1)  (-1  0  0)  (-1  1  0)  (-1  0  0)  (-1  1  0)  (-1  0  1)
  (-1  0  0)  (-1  0  1)  (-1  0  0)  (-1  1  0)  (-1  0  1)  (-1  1  0)
Note: your k-points are not as symmetric as your crystal!

512 k-points: 8 x 8 x 8 Monkhorst-Pack grid
60 k-points in the irreducible part of the Brillouin zone
       k-points in crystal coordinates                weights
   0:     0.06250000    0.06250000   -0.06250000          6/512
   1:     0.06250000    0.06250000    0.06250000          2/512
   2:     0.18750000   -0.06250000   -0.06250000          6/512
   3:     0.18750000    0.06250000   -0.18750000         12/512
   4:     0.18750000    0.06250000   -0.06250000         12/512
   5:     0.18750000    0.06250000    0.06250000          6/512
   6:     0.18750000    0.18750000   -0.18750000          6/512
   7:     0.18750000    0.18750000   -0.06250000          6/512
   8:     0.18750000    0.18750000    0.06250000          6/512
   9:     0.18750000    0.18750000    0.18750000          2/512
          ...
  59:     0.43750000    0.43750000    0.43750000          2/512

Wave functions: Plane wave expansion
  Cutoff energy: 300.000 eV
  Number of coefficients (min, max): 463, 495
  Pulay-stress correction: 0.000000 eV/Ang^3 (de/decut=0.000000)
  Using Numpy's FFT
  ScaLapack parameters: grid=1x1, blocksize=None
  Wavefunction extrapolation:
    Improved wavefunction reuse through dual PAW basis 

Eigensolver
   Davidson(niter=2, smin=None, normalize=True) 

Densities:
  Coarse grid: 16*16*16 grid
  Fine grid: 32*32*32 grid
  Total Charge: 0.000000 

Density mixing:
  Method: separate
  Backend: pulay
  Linear mixing parameter: 0.05
  Mixing with 5 old densities
  Damping of long wave oscillations: 50 

Hamiltonian:
  XC and Coulomb potentials evaluated on a 32*32*32 grid
  Using the PBE Exchange-Correlation functional
 

XC parameters: PBE with 2 nearest neighbor stencil

Memory estimate:
  Process memory now: 1221.46 MiB
  Calculator: 9.73 MiB
    Density: 1.63 MiB
      Arrays: 0.81 MiB
      Localized functions: 0.50 MiB
      Mixer: 0.31 MiB
    Hamiltonian: 0.54 MiB
      Arrays: 0.53 MiB
      XC: 0.00 MiB
      Poisson: 0.00 MiB
      vbar: 0.01 MiB
    Wavefunctions: 7.56 MiB
      Arrays psit_nG: 3.63 MiB
      Eigensolver: 0.11 MiB
      Projections: 0.19 MiB
      Projectors: 3.03 MiB
      PW-descriptor: 0.61 MiB

Total number of cores used: 1

Number of atoms: 2
Number of atomic orbitals: 8
Number of bands in calculation: 8
Bands to converge: occupied states only
Number of valence electrons: 8

... initialized

Initializing position-dependent things.

Density initialized from atomic densities
Creating initial wave functions:
  8 bands from LCAO basis set

                    
                    
                    
                    
           Si       
                    
       Si           
                    
                    
                    
                    

Positions:
   0 Si     0.000000    0.000000    0.000000    ( 0.0000,  0.0000,  0.0000)
   1 Si     1.357500    1.357500    1.357500    ( 0.0000,  0.0000,  0.0000)

Unit cell:
           periodic     x           y           z      points  spacing
  1. axis:    yes    0.000000    2.715000    2.715000    16     0.1959
  2. axis:    yes    2.715000    0.000000    2.715000    16     0.1959
  3. axis:    yes    2.715000    2.715000    0.000000    16     0.1959

  Lengths:   3.839590   3.839590   3.839590
  Angles:   60.000000  60.000000  60.000000

Effective grid spacing dv^(1/3) = 0.2138

                     log10-error:    total        iterations:
           time      wfs    density  energy       fermi  poisson
iter:   1  14:43:08  +1.05   +inf   -10.874885    0             
iter:   2  14:43:09  -1.95  -0.80   -10.875782    0             
iter:   3  14:43:09  -1.11  -0.81   -11.176282    1             
iter:   4  14:43:10  -2.13  -0.65   -10.834923    1             
iter:   5  14:43:11  -3.05  -1.22   -10.813130    0             
iter:   6  14:43:12  -2.73  -1.37   -10.789803    0             
iter:   7  14:43:13  -4.32  -2.58   -10.789738    0             
iter:   8  14:43:13  -5.37  -3.02   -10.789739    0             
iter:   9  14:43:14  -5.97  -3.03   -10.789754    0             
iter:  10  14:43:15  -6.08  -2.96   -10.789737    0             
iter:  11  14:43:16  -7.34  -4.51   -10.789737    0             
iter:  12  14:43:16  -7.67  -3.85   -10.789737    0             
iter:  13  14:43:17  -8.68  -4.34   -10.789737    0             

Converged after 13 iterations.

Dipole moment: (-2.923529, -2.923529, -2.923529) |e|*Ang

Energy contributions relative to reference atoms: (reference = -15772.688500)

Kinetic:        +15.566145
Potential:      -13.664316
External:        +0.000000
XC:             -12.659219
Entropy (-ST):   -0.000000
Local:           -0.032348
--------------------------
Free energy:    -10.789737
Extrapolated:   -10.789737

Fermi level: 5.82630

Showing only first 2 kpts
 Kpt  Band  Eigenvalues  Occupancy
  0     2      4.79513    0.02344
  0     3      4.96344    0.02344
  0     4      7.71251    0.00000
  0     5      8.32948    0.00000

  1     2      5.23098    0.00781
  1     3      5.23098    0.00781
  1     4      7.94000    0.00000
  1     5      7.99956    0.00000


Gap: 0.813 eV
Transition (v -> c):
  (s=0, k=1, n=3, [0.06, 0.06, 0.06]) -> (s=0, k=55, n=4, [0.44, 0.44, -0.06])
Writing to Si_gs.gpw (mode='')

Timing:                              incl.     excl.
-----------------------------------------------------------
Hamiltonian:                         0.149     0.001   0.0% |
 Atomic:                             0.122     0.001   0.0% |
  XC Correction:                     0.121     0.121   0.0% |
 Calculate atomic Hamiltonians:      0.002     0.002   0.0% |
 Communicate:                        0.000     0.000   0.0% |
 Initialize Hamiltonian:             0.000     0.000   0.0% |
 Poisson:                            0.000     0.000   0.0% |
 XC 3D grid:                         0.025     0.025   0.0% |
LCAO initialization:                 1.649     0.019   0.0% |
 LCAO eigensolver:                   0.165     0.003   0.0% |
  Calculate projections:             0.002     0.002   0.0% |
  DenseAtomicCorrection:             0.006     0.006   0.0% |
  Distribute overlap matrix:         0.001     0.001   0.0% |
  Orbital Layouts:                   0.005     0.005   0.0% |
  Potential matrix:                  0.038     0.038   0.0% |
  Sum over cells:                    0.110     0.110   0.0% |
 LCAO to grid:                       1.167     1.167   0.2% |
 Set positions (LCAO WFS):           0.298     0.042   0.0% |
  Basic WFS set positions:           0.001     0.001   0.0% |
  Basis functions set positions:     0.000     0.000   0.0% |
  P tci:                             0.075     0.075   0.0% |
  ST tci:                            0.152     0.152   0.0% |
  mktci:                             0.027     0.027   0.0% |
PWDescriptor:                        0.010     0.010   0.0% |
SCF-cycle:                          10.159     0.094   0.0% |
 Davidson:                           7.523     1.487   0.3% |
  Apply H:                           1.071     0.986   0.2% |
   HMM T:                            0.085     0.085   0.0% |
  Subspace diag:                     1.499     0.067   0.0% |
   calc_h_matrix:                    1.250     0.168   0.0% |
    Apply H:                         1.082     0.995   0.2% |
     HMM T:                          0.088     0.088   0.0% |
   diagonalize:                      0.109     0.109   0.0% |
   rotate_psi:                       0.072     0.072   0.0% |
  calc. matrices:                    3.066     0.942   0.2% |
   Apply H:                          2.124     1.955   0.4% |
    HMM T:                           0.169     0.169   0.0% |
  diagonalize:                       0.298     0.298   0.1% |
  rotate_psi:                        0.102     0.102   0.0% |
 Density:                            0.621     0.000   0.0% |
  Atomic density matrices:           0.041     0.041   0.0% |
  Mix:                               0.045     0.045   0.0% |
  Multipole moments:                 0.002     0.002   0.0% |
  Pseudo density:                    0.533     0.455   0.1% |
   Symmetrize density:               0.079     0.079   0.0% |
 Hamiltonian:                        1.881     0.010   0.0% |
  Atomic:                            1.503     0.007   0.0% |
   XC Correction:                    1.496     1.496   0.3% |
  Calculate atomic Hamiltonians:     0.010     0.010   0.0% |
  Communicate:                       0.000     0.000   0.0% |
  Poisson:                           0.001     0.001   0.0% |
  XC 3D grid:                        0.356     0.356   0.1% |
 Orthonormalize:                     0.041     0.006   0.0% |
  calc_s_matrix:                     0.009     0.009   0.0% |
  inverse-cholesky:                  0.010     0.010   0.0% |
  projections:                       0.013     0.013   0.0% |
  rotate_psi_s:                      0.003     0.003   0.0% |
Set symmetry:                        0.044     0.044   0.0% |
Other:                             495.547   495.547  97.6% |--------------------------------------|
-----------------------------------------------------------
Total:                                       507.559 100.0%

Memory usage: 1.23 GiB
Date: Mon Mar 16 14:51:32 2020
