
  ___ ___ ___ _ _ _  
 |   |   |_  | | | | 
 | | | | | . | | | | 
 |__ |  _|___|_____|  19.8.1
 |___|_|             

User:   erik@HP-OMEN
Date:   Fri Feb  7 14:24:44 2020
Arch:   x86_64
Pid:    576
Python: 3.7.5
gpaw:   /home/erik/.local/lib/python3.7/site-packages/gpaw
_gpaw:  /home/erik/.local/lib/python3.7/site-packages/
        _gpaw.cpython-37m-x86_64-linux-gnu.so
ase:    /home/erik/anaconda3/lib/python3.7/site-packages/ase (version 3.19.0)
numpy:  /home/erik/anaconda3/lib/python3.7/site-packages/numpy (version 1.17.4)
scipy:  /home/erik/anaconda3/lib/python3.7/site-packages/scipy (version 1.3.2)
libxc:  3.0.0
units:  Angstrom and eV
cores:  1

Input parameters:
  basis: dzp
  h: 0.25
  mode: lcao
  nbands: 10
  occupations: {name: fermi-dirac,
                width: 0.05}
  setups: {Na: 1}

Memory usage: 758.22 MiB
Date: Fri Feb  7 15:43:54 2020
charges, initial_magmoms 

Initialize ...

Na-setup:
  name: Sodium
  id: fa5c50181d04022fed15b2593599c257
  Z: 11
  valence: 1
  core: 10
  charge: 0.0
  file: /usr/bin/gpaw-setups-0.9.20000/Na.1.LDA.gz
  compensation charges: gauss, rc=0.43, lmax=2
  cutoffs: 2.36(filt), 3.60(core),
  valence states:
                energy  radius
    3s(1.00)    -2.819   1.349
    3p(0.00)    -0.774   1.349
    *s          24.392   1.349

  LCAO basis set for Na:
    Name: 1.dzp
    File: /usr/bin/gpaw-setups-0.9.20000/Na.1.dzp.basis.gz
    Number of radial functions: 3
    Number of spherical harmonics: 5
      l=0, rc=11.7656 Bohr: 3s-sz confined orbital
      l=0, rc=7.1094 Bohr: 3s-dz split-valence wave
      l=1, rc=11.7656 Bohr: p-type Gaussian polarization

Reference energy: -35189.668405

Spin-paired calculation

Occupation numbers:
  Fermi-Dirac: width=0.0500 eV

Convergence criteria:
  Maximum total energy change: 0.0005 eV / electron
  Maximum integral of absolute density change: 0.0001 electrons
  Maximum integral of absolute eigenstate change: 4e-08 eV^2
  Maximum number of iterations: 333

Symmetries present (total): 1

  ( 1  0  0)
  ( 0  1  0)
  ( 0  0  1)

1 k-point (Gamma)
1 k-point in the irreducible part of the Brillouin zone
       k-points in crystal coordinates                weights
   0:     0.00000000    0.00000000    0.00000000          1/1

Wave functions: LCAO
  Diagonalizer: Serial LAPACK
  Atomic Correction: dense with blas
  Datatype: float
 

Eigensolver
   LCAO using direct dense diagonalizer 

Densities:
  Coarse grid: 64*64*64 grid
  Fine grid: 128*128*128 grid
  Total Charge: 0.000000 

Density mixing:
  Method: separate
  Backend: pulay
  Linear mixing parameter: 0.25
  Mixing with 3 old densities
  No damping of long wave oscillations 

Hamiltonian:
  XC and Coulomb potentials evaluated on a 128*128*128 grid
  Using the LDA Exchange-Correlation functional
  Interpolation: tri-quintic (5. degree polynomial)
  Poisson solver: FastPoissonSolver using
    6*3+1=19 point O(h^6) finite-difference Laplacian stencil;
    FFT axes: [];
    FST axes: [0, 1, 2].
 

Memory estimate:
  Process memory now: 608.69 MiB
  Calculator: 137.65 MiB
    Density: 86.07 MiB
      Arrays: 50.70 MiB
      Localized functions: 23.92 MiB
      Mixer: 11.45 MiB
    Hamiltonian: 34.89 MiB
      Arrays: 33.16 MiB
      XC: 0.00 MiB
      Poisson: 0.00 MiB
      vbar: 1.73 MiB
    Wavefunctions: 16.70 MiB
      C [qnM]: 0.00 MiB
      S, T [2 x qmm]: 0.02 MiB
      P [aqMi]: 0.00 MiB
      BasisFunctions: 16.67 MiB
      Eigensolver: 0.00 MiB

Total number of cores used: 1

Number of atoms: 8
Number of atomic orbitals: 40
Number of bands in calculation: 10
Bands to converge: occupied states only
Number of valence electrons: 8

... initialized

Initializing position-dependent things.

Density initialized from atomic densities
           .--------------------------------------.  
          /|                                      |  
         / |                                      |  
        /  |                                      |  
       /   |                                      |  
      /    |                                      |  
     /     |                                      |  
    /      |                                      |  
   /       |                                      |  
  /        |                                      |  
 *         |                                      |  
 |         |           Na                         |  
 |         |                   Na                 |  
 |         |            Na                        |  
 |         |                                      |  
 |         |              Na   Na                 |  
 |         |       Na            Na               |  
 |         |                                      |  
 |         |              Na                      |  
 |         |                                      |  
 |         .--------------------------------------.  
 |        /                                      /   
 |       /                                      /    
 |      /                                      /     
 |     /                                      /      
 |    /                                      /       
 |   /                                      /        
 |  /                                      /         
 | /                                      /          
 |/                                      /           
 *--------------------------------------*            

Positions:
   0 Na     8.306850    7.029907    6.252869    ( 0.0000,  0.0000,  0.0000)
   1 Na     9.642319    9.949439    9.634888    ( 0.0000,  0.0000,  0.0000)
   2 Na     7.600995    6.995330    9.780296    ( 0.0000,  0.0000,  0.0000)
   3 Na    10.680752    9.499129    6.386273    ( 0.0000,  0.0000,  0.0000)
   4 Na     7.609596   10.527391    6.733619    ( 0.0000,  0.0000,  0.0000)
   5 Na     5.384658    7.989269    7.352681    ( 0.0000,  0.0000,  0.0000)
   6 Na    10.673266    6.791443    8.720970    ( 0.0000,  0.0000,  0.0000)
   7 Na     6.393051   10.206047    9.927427    ( 0.0000,  0.0000,  0.0000)

Unit cell:
           periodic     x           y           z      points  spacing
  1. axis:    no    16.000000    0.000000    0.000000    64     0.2500
  2. axis:    no     0.000000   16.000000    0.000000    64     0.2500
  3. axis:    no     0.000000    0.000000   16.000000    64     0.2500

  Lengths:  16.000000  16.000000  16.000000
  Angles:   90.000000  90.000000  90.000000

Effective grid spacing dv^(1/3) = 0.2500

                     log10-error:    total        iterations:
           time      wfs    density  energy       fermi  poisson
iter:   1  15:26:08          +inf    -7.648998    2      1      
iter:   2  15:26:09         -0.62    -7.377182    7      1      
iter:   3  15:26:10         -0.87    -7.285298    7      1      
iter:   4  15:26:11         -1.38    -7.281386    2      1      
iter:   5  15:26:12         -2.06    -7.281226    2      1      
iter:   6  15:26:13         -2.29    -7.281186    1      1      
iter:   7  15:26:14         -2.58    -7.281163    2      1      
iter:   8  15:26:15         -3.24    -7.281162    1      1      
iter:   9  15:26:16         -3.42    -7.281162    1      1      
iter:  10  15:26:17         -4.14    -7.281162    1      1      

Converged after 10 iterations.

Dipole moment: (0.004239, -0.003949, -0.000788) |e|*Ang

Energy contributions relative to reference atoms: (reference = -35189.668405)

Kinetic:        +30.517426
Potential:      -26.720792
External:        +0.000000
XC:             -11.117519
Entropy (-ST):   -0.000003
Local:           +0.039725
--------------------------
Free energy:     -7.281163
Extrapolated:    -7.281162

Fermi level: -2.37551

 Band  Eigenvalues  Occupancy
    0     -4.80098    2.00000
    1     -3.52267    2.00000
    2     -3.10646    2.00000
    3     -3.09827    2.00000
    4     -1.64551    0.00000
    5     -1.61936    0.00000
    6     -1.61314    0.00000
    7     -1.45248    0.00000
    8      1.34203    0.00000
    9      1.55335    0.00000

Gap: 1.453 eV
Transition (v -> c):
  (s=0, k=0, n=3, [0.00, 0.00, 0.00]) -> (s=0, k=0, n=4, [0.00, 0.00, 0.00])
Writing to WFbest.gpw (mode='all')

Timing:                              incl.     excl.
-----------------------------------------------------------
Basic WFS set positions:             0.000     0.000   0.0% |
Basis functions set positions:       0.033     0.033   0.3% |
LCAO WFS Initialize:                 1.110     0.100   0.8% |
 Hamiltonian:                        1.010     0.000   0.0% |
  Atomic:                            0.142     0.001   0.0% |
   XC Correction:                    0.141     0.141   1.1% |
  Calculate atomic Hamiltonians:     0.006     0.006   0.0% |
  Communicate:                       0.000     0.000   0.0% |
  Hartree integrate/restrict:        0.043     0.043   0.3% |
  Initialize Hamiltonian:            0.022     0.022   0.2% |
  Poisson:                           0.278     0.007   0.1% |
   Communicate bwd 0:                0.020     0.020   0.2% |
   Communicate bwd 1:                0.017     0.017   0.1% |
   Communicate fwd 0:                0.069     0.069   0.5% |
   Communicate fwd 1:                0.055     0.055   0.4% |
   fft:                              0.032     0.032   0.2% |
   fft2:                             0.078     0.078   0.6% |
  XC 3D grid:                        0.498     0.498   3.8% |-|
  vbar:                              0.021     0.021   0.2% |
P tci:                               0.015     0.015   0.1% |
SCF-cycle:                           9.430     0.005   0.0% |
 Density:                            1.039     0.000   0.0% |
  Atomic density matrices:           0.008     0.008   0.1% |
  Mix:                               0.339     0.339   2.6% ||
  Multipole moments:                 0.002     0.002   0.0% |
  Normalize:                         0.002     0.002   0.0% |
  Pseudo density:                    0.688     0.004   0.0% |
   Calculate density matrix:         0.000     0.000   0.0% |
   Construct density:                0.683     0.683   5.2% |-|
   Symmetrize density:               0.000     0.000   0.0% |
 Hamiltonian:                        7.494     0.001   0.0% |
  Atomic:                            1.246     0.009   0.1% |
   XC Correction:                    1.238     1.238   9.5% |---|
  Calculate atomic Hamiltonians:     0.049     0.049   0.4% |
  Communicate:                       0.000     0.000   0.0% |
  Hartree integrate/restrict:        0.133     0.133   1.0% |
  Poisson:                           1.822     0.072   0.6% |
   Communicate bwd 0:                0.208     0.208   1.6% ||
   Communicate bwd 1:                0.139     0.139   1.1% |
   Communicate fwd 0:                0.135     0.135   1.0% |
   Communicate fwd 1:                0.206     0.206   1.6% ||
   fft:                              0.312     0.312   2.4% ||
   fft2:                             0.749     0.749   5.7% |-|
  XC 3D grid:                        4.212     4.212  32.3% |------------|
  vbar:                              0.030     0.030   0.2% |
 LCAO eigensolver:                   0.892     0.001   0.0% |
  Calculate projections:             0.001     0.001   0.0% |
  DenseAtomicCorrection:             0.002     0.002   0.0% |
  Distribute overlap matrix:         0.000     0.000   0.0% |
  Orbital Layouts:                   0.005     0.005   0.0% |
  Potential matrix:                  0.883     0.883   6.8% |--|
ST tci:                              0.004     0.004   0.0% |
Set symmetry:                        0.001     0.001   0.0% |
TCI: Evaluate splines:               0.016     0.016   0.1% |
mktci:                               0.003     0.003   0.0% |
Other:                               2.427     2.427  18.6% |------|
-----------------------------------------------------------
Total:                                        13.038 100.0%

Date: Fri Feb  7 15:26:17 2020
