
  ___ ___ ___ _ _ _  
 |   |   |_  | | | | 
 | | | | | . | | | | 
 |__ |  _|___|_____|  19.8.1
 |___|_|             

User:   erik@HP-OMEN
Date:   Fri Mar 13 18:30:43 2020
Arch:   x86_64
Pid:    345
Python: 3.7.5
gpaw:   /home/erik/.local/lib/python3.7/site-packages/gpaw
_gpaw:  /home/erik/.local/lib/python3.7/site-packages/
        _gpaw.cpython-37m-x86_64-linux-gnu.so
ase:    /home/erik/anaconda3/lib/python3.7/site-packages/ase (version 3.19.0)
numpy:  /home/erik/anaconda3/lib/python3.7/site-packages/numpy (version 1.17.4)
scipy:  /home/erik/anaconda3/lib/python3.7/site-packages/scipy (version 1.3.2)
libxc:  3.0.0
units:  Angstrom and eV
cores:  1

System changes: positions, numbers, cell, pbc, initial_charges, initial_magmoms 

Initialize ...

Al-setup:
  name: Aluminium
  id: 2e6447feaea722efcff26bf034b25f30
  Z: 13
  valence: 3
  core: 10
  charge: 0.0
  file: /usr/bin/gpaw-setups-0.9.20000/Al.LDA.gz
  compensation charges: gauss, rc=0.34, lmax=2
  cutoffs: 1.91(filt), 2.36(core),
  valence states:
                energy  radius
    3s(2.00)    -7.830   1.085
    3p(1.00)    -2.783   1.085
    *s          19.382   1.085
    *p          24.428   1.085
    *d           0.000   1.085

  Using partial waves for Al as LCAO basis

Reference energy: -151303.690069

Spin-paired calculation

Occupation numbers:
  Fermi-Dirac: width=0.1000 eV

Convergence criteria:
  Maximum total energy change: 0.0005 eV / electron
  Maximum integral of absolute density change: 0.0001 electrons
  Maximum integral of absolute eigenstate change: 4e-08 eV^2
  Maximum number of iterations: 333

Symmetries present (total): 1

  ( 1  0  0)
  ( 0  1  0)
  ( 0  0  1)

1 k-point (Gamma)
1 k-point in the irreducible part of the Brillouin zone
       k-points in crystal coordinates                weights
   0:     0.00000000    0.00000000    0.00000000          1/1

Wave functions: Uniform real-space grid
  Kinetic energy operator: 6*3+1=19 point O(h^6) finite-difference Laplacian
  ScaLapack parameters: grid=1x1, blocksize=None
  Wavefunction extrapolation:
    Improved wavefunction reuse through dual PAW basis 

Eigensolver
   Davidson(niter=2, smin=None, normalize=True) 

Densities:
  Coarse grid: 96*96*88 grid
  Fine grid: 192*192*176 grid
  Total Charge: 0.000000 

Density mixing:
  Method: separate
  Backend: pulay
  Linear mixing parameter: 0.05
  Mixing with 5 old densities
  Damping of long wave oscillations: 50 

Hamiltonian:
  XC and Coulomb potentials evaluated on a 192*192*176 grid
  Using the LDA Exchange-Correlation functional
  Interpolation: tri-quintic (5. degree polynomial)
  Poisson solver: FastPoissonSolver using
    6*3+1=19 point O(h^6) finite-difference Laplacian stencil;
    FFT axes: [0, 1, 2];
    FST axes: [].
 

Memory estimate:
  Process memory now: 1072.55 MiB
  Calculator: 1011.04 MiB
    Density: 291.97 MiB
      Arrays: 160.88 MiB
      Localized functions: 69.22 MiB
      Mixer: 61.88 MiB
    Hamiltonian: 110.30 MiB
      Arrays: 105.19 MiB
      XC: 0.00 MiB
      Poisson: 0.00 MiB
      vbar: 5.11 MiB
    Wavefunctions: 608.77 MiB
      Arrays psit_nG: 284.62 MiB
      Eigensolver: 315.73 MiB
      Projections: 0.10 MiB
      Projectors: 8.31 MiB

Total number of cores used: 1

Number of atoms: 23
Number of atomic orbitals: 92
Number of bands in calculation: 46
Bands to converge: occupied states only
Number of valence electrons: 69

... initialized

Initializing position-dependent things.

Density initialized from atomic densities
Creating initial wave functions:
  46 bands from LCAO basis set

             .----------------------------------------------.  
            /|                                              |  
           / |                                              |  
          /  |                                              |  
         /   |                                              |  
        /    |                                              |  
       /     |                                              |  
      /      |                                              |  
     /       |                                              |  
    /        |                                              |  
   /         |                                              |  
  /          |                                              |  
 *           |                                              |  
 |           |              Al  Al                          |  
 |           |           Al     Al Al                       |  
 |           |        Al                                    |  
 |           |            Al Al      Al                     |  
 |           |               AAl   Al  Al                   |  
 |           |         Al       Al                          |  
 |           |        Al      Al                            |  
 |           |             All    All Al                    |  
 |           |                                              |  
 |           .------------------Al--------------------------.  
 |          /                                              /   
 |         /                                              /    
 |        /                                              /     
 |       /                                              /      
 |      /                                              /       
 |     /                                              /        
 |    /                                              /         
 |   /                                              /          
 |  /                                              /           
 | /                                              /            
 |/                                              /             
 *----------------------------------------------*              

Positions:
   0 Al    10.699828    7.249906    6.046951    ( 0.0000,  0.0000,  0.0000)
   1 Al     8.523640    8.813184    6.519659    ( 0.0000,  0.0000,  0.0000)
   2 Al    12.985313    8.150110    7.259334    ( 0.0000,  0.0000,  0.0000)
   3 Al     6.335866   10.770544    7.408730    ( 0.0000,  0.0000,  0.0000)
   4 Al    11.076316    9.983381    6.292402    ( 0.0000,  0.0000,  0.0000)
   5 Al     8.718237   11.398021    5.982086    ( 0.0000,  0.0000,  0.0000)
   6 Al     6.546339    8.024867    8.030925    ( 0.0000,  0.0000,  0.0000)
   7 Al     8.899322    6.438525    8.006207    ( 0.0000,  0.0000,  0.0000)
   8 Al    10.462246    8.610858    8.565997    ( 0.0000,  0.0000,  0.0000)
   9 Al    10.311612    6.351045   10.435457    ( 0.0000,  0.0000,  0.0000)
  10 Al     8.238167    8.097330   10.155260    ( 0.0000,  0.0000,  0.0000)
  11 Al    11.713523    6.043298    8.251542    ( 0.0000,  0.0000,  0.0000)
  12 Al    12.516212    8.140670   10.104083    ( 0.0000,  0.0000,  0.0000)
  13 Al    10.323174    8.619708   11.816139    ( 0.0000,  0.0000,  0.0000)
  14 Al     6.586597   12.236866    9.911142    ( 0.0000,  0.0000,  0.0000)
  15 Al     6.027395    9.687237   10.036325    ( 0.0000,  0.0000,  0.0000)
  16 Al     8.549380   10.482826    8.758870    ( 0.0000,  0.0000,  0.0000)
  17 Al    10.567056   12.119112    7.933692    ( 0.0000,  0.0000,  0.0000)
  18 Al    10.868205   10.715170   10.357556    ( 0.0000,  0.0000,  0.0000)
  19 Al     9.204002   12.863751   10.227428    ( 0.0000,  0.0000,  0.0000)
  20 Al    12.721931   10.472154    8.483333    ( 0.0000,  0.0000,  0.0000)
  21 Al     7.940380   13.131794    7.811842    ( 0.0000,  0.0000,  0.0000)
  22 Al     8.278048   10.558059   11.478536    ( 0.0000,  0.0000,  0.0000)

Unit cell:
           periodic     x           y           z      points  spacing
  1. axis:    yes   19.005700    0.000000    0.000000    96     0.1980
  2. axis:    yes    0.000000   19.152210    0.000000    96     0.1995
  3. axis:    yes    0.000000    0.000000   17.708910    88     0.2012

  Lengths:  19.005700  19.152210  17.708910
  Angles:   90.000000  90.000000  90.000000

Effective grid spacing dv^(1/3) = 0.1996

                     log10-error:    total        iterations:
           time      wfs    density  energy       fermi  poisson
iter:   1  18:31:19  +1.18   +inf   -78.007975    3      1      
iter:   2  18:31:33  +0.23  -0.79   -77.765171    3      1      
iter:   3  18:31:47  +0.58  -0.80   -75.344095    29     1      
iter:   4  18:32:00  +0.36  -1.02   -75.464195    3      1      
iter:   5  18:32:14  -0.43  -1.13   -75.239783    3      1      
iter:   6  18:32:28  +0.21  -1.35   -76.800226    32     1      
iter:   7  18:32:41  -0.87  -1.05   -76.375946    3      1      
iter:   8  18:32:55  +0.24  -1.09   -75.296936    36     1      
iter:   9  18:33:08  -0.46  -1.63   -75.177906    4      1      
iter:  10  18:33:22  -0.72  -1.83   -75.275971    3      1      
iter:  11  18:33:36  -0.84  -1.66   -75.155018    3      1      
iter:  12  18:33:49  -0.75  -2.21   -75.185689    3      1      
iter:  13  18:34:03  -2.16  -2.08   -75.166608    3      1      
iter:  14  18:34:17  -1.97  -2.33   -75.166026    3      1      
iter:  15  18:34:30  -2.44  -2.44   -75.167589    3      1      
iter:  16  18:34:44  -2.34  -2.61   -75.167595    3      1      
iter:  17  18:34:57  -3.33  -2.71   -75.167216    2      1      
iter:  18  18:35:11  -2.66  -2.80   -75.166993    3      1      
iter:  19  18:35:25  -2.97  -2.88   -75.166352    3      1      
iter:  20  18:35:39  -4.16  -3.16   -75.166106    2      1      
iter:  21  18:35:52  -3.64  -3.33   -75.166130    2      1      
iter:  22  18:36:06  -4.54  -3.27   -75.166112    2      1      
iter:  23  18:36:20  -4.34  -3.41   -75.166066    2      1      
iter:  24  18:36:34  -4.38  -3.58   -75.166141    2      1      
iter:  25  18:36:47  -4.72  -3.53   -75.166143    2      1      
iter:  26  18:37:01  -5.52  -3.88   -75.166116    2      1      
iter:  27  18:37:14  -5.57  -3.98   -75.166099    2      1      
iter:  28  18:37:28  -6.23  -4.06   -75.166104    2      1      
iter:  29  18:37:42  -5.69  -4.19   -75.166117    2      1      
iter:  30  18:37:55  -6.19  -4.30   -75.166114    2      1      
iter:  31  18:38:09  -7.02  -4.45   -75.166117    2      1      
iter:  32  18:38:22  -5.92  -4.56   -75.166122    2      1      
iter:  33  18:38:36  -6.78  -4.34   -75.166118    2      1      
iter:  34  18:38:50  -6.49  -4.57   -75.166117    2      1      
iter:  35  18:39:03  -6.96  -4.84   -75.166117    2      1      
iter:  36  18:39:17  -8.09  -4.93   -75.166116    2      1      

Converged after 36 iterations.

Dipole moment: (-0.025848, -0.022682, 0.026599) |e|*Ang

Energy contributions relative to reference atoms: (reference = -151303.690069)

Kinetic:        +96.482603
Potential:      -67.591303
External:        +0.000000
XC:            -103.689702
Entropy (-ST):   -0.591010
Local:           -0.072209
--------------------------
Free energy:    -75.461621
Extrapolated:   -75.166116

Fermi level: -3.55170

 Band  Eigenvalues  Occupancy
    0    -13.48547    2.00000
    1    -12.38945    2.00000
    2    -11.64140    2.00000
    3    -11.53055    2.00000
    4    -10.60388    2.00000
    5    -10.33225    2.00000
    6    -10.09642    2.00000
    7     -9.39912    2.00000
    8     -9.06529    2.00000
    9     -8.52176    2.00000
   10     -8.51117    2.00000
   11     -8.28581    2.00000
   12     -8.04305    2.00000
   13     -7.68925    2.00000
   14     -7.59404    2.00000
   15     -6.84535    2.00000
   16     -6.60964    2.00000
   17     -6.42427    2.00000
   18     -6.22355    2.00000
   19     -6.13752    2.00000
   20     -5.79983    2.00000
   21     -5.75361    2.00000
   22     -5.75244    2.00000
   23     -5.49297    2.00000
   24     -5.47474    2.00000
   25     -5.05079    2.00000
   26     -4.83516    1.99999
   27     -4.81499    1.99999
   28     -4.48403    1.99982
   29     -4.18156    1.99633
   30     -3.86702    1.91807
   31     -3.86449    1.91606
   32     -3.75768    1.77388
   33     -3.71041    1.66044
   34     -3.52982    0.89103
   35     -3.45724    0.55997
   36     -3.33896    0.21293
   37     -3.21314    0.06550
   38     -2.90043    0.00296
   39     -2.83145    0.00149
   40     -2.82236    0.00136
   41     -2.59594    0.00014
   42     -2.28296    0.00001
   43     -2.22819    0.00000
   44     -2.17408    0.00000
   45     -1.99515    0.00000

Gap: 0.181 eV
Transition (v -> c):
  (s=0, k=0, n=33, [0.00, 0.00, 0.00]) -> (s=0, k=0, n=34, [0.00, 0.00, 0.00])
Writing to myCalc_23.gpw (mode='all')

System changes: cell, numbers, positions 

Initialize ...

Al-setup:
  name: Aluminium
  id: 2e6447feaea722efcff26bf034b25f30
  Z: 13
  valence: 3
  core: 10
  charge: 0.0
  file: /usr/bin/gpaw-setups-0.9.20000/Al.LDA.gz
  compensation charges: gauss, rc=0.34, lmax=2
  cutoffs: 1.91(filt), 2.36(core),
  valence states:
                energy  radius
    3s(2.00)    -7.830   1.085
    3p(1.00)    -2.783   1.085
    *s          19.382   1.085
    *p          24.428   1.085
    *d           0.000   1.085

  Using partial waves for Al as LCAO basis

Reference energy: -592057.917662

Spin-paired calculation

Occupation numbers:
  Fermi-Dirac: width=0.1000 eV

Convergence criteria:
  Maximum total energy change: 0.0005 eV / electron
  Maximum integral of absolute density change: 0.0001 electrons
  Maximum integral of absolute eigenstate change: 4e-08 eV^2
  Maximum number of iterations: 333

Symmetries present (total): 1

  ( 1  0  0)
  ( 0  1  0)
  ( 0  0  1)

1 k-point (Gamma)
1 k-point in the irreducible part of the Brillouin zone
       k-points in crystal coordinates                weights
   0:     0.00000000    0.00000000    0.00000000          1/1

Wave functions: Uniform real-space grid
  Kinetic energy operator: 6*3+1=19 point O(h^6) finite-difference Laplacian
  ScaLapack parameters: grid=1x1, blocksize=None
  Wavefunction extrapolation:
    Improved wavefunction reuse through dual PAW basis 

Eigensolver
   Davidson(niter=2, smin=None, normalize=True) 

Densities:
  Coarse grid: 112*120*120 grid
  Fine grid: 224*240*240 grid
  Total Charge: 0.000000 

Density mixing:
  Method: separate
  Backend: pulay
  Linear mixing parameter: 0.05
  Mixing with 5 old densities
  Damping of long wave oscillations: 50 

Hamiltonian:
  XC and Coulomb potentials evaluated on a 224*240*240 grid
  Using the LDA Exchange-Correlation functional
  Interpolation: tri-quintic (5. degree polynomial)
  Poisson solver: FastPoissonSolver using
    6*3+1=19 point O(h^6) finite-difference Laplacian stencil;
    FFT axes: [0, 1, 2];
    FST axes: [].
 

Memory estimate:
  Process memory now: 1804.51 MiB
  Calculator: 5118.63 MiB
    Density: 707.81 MiB
      Arrays: 319.92 MiB
      Localized functions: 264.85 MiB
      Mixer: 123.05 MiB
    Hamiltonian: 228.75 MiB
      Arrays: 209.18 MiB
      XC: 0.00 MiB
      Poisson: 0.00 MiB
      vbar: 19.57 MiB
    Wavefunctions: 4182.07 MiB
      Arrays psit_nG: 2042.58 MiB
      Eigensolver: 2106.21 MiB
      Projections: 1.48 MiB
      Projectors: 31.80 MiB

Total number of cores used: 1

Number of atoms: 90
Number of atomic orbitals: 360
Number of bands in calculation: 166
Bands to converge: occupied states only
Number of valence electrons: 270

... initialized

Initializing position-dependent things.

Density initialized from atomic densities
Creating initial wave functions:
  166 bands from LCAO basis set

                .------------------------------------------------------.  
               /|                                                      |  
              / |                                                      |  
             /  |                                                      |  
            /   |                                                      |  
           /    |                                                      |  
          /     |                                                      |  
         /      |                                                      |  
        /       |                                                      |  
       /        |                                                      |  
      /         |                                                      |  
     /          |                                                      |  
    /           |                                                      |  
   /            |                   Al                                 |  
  /             |             Al     Al Al                             |  
 *              |       Al     Al Al     AlAl                          |  
 |              |           Al     AlAl      Al                        |  
 |              |        Al     Al        Al                           |  
 |              |         Al AlAl   AlAl      AlAl                     |  
 |              |      Al     AlAl   Al AlAl   AlAl                    |  
 |              |       AlAl   Al AlAl   AlAl     Al                   |  
 |              |        AlAl Al   AlAl   Al AlAl                      |  
 |              |                                                      |  
 |              |    Al      AlAl   AlAl Al   AlAl                     |  
 |              |      AlAl   AlAl Al   AlAl     Al                    |  
 |              |       AlAl     Al Al   AlAl Al                       |  
 |              |          Al Al   AlAl Al   AlAl                      |  
 |              |                                                      |  
 |              |            AlAl     Al Al     Al                     |  
 |              |               Al Al   AlAl                           |  
 |              .-----------------AlAl-----Al--------------------------.  
 |             /                     Al                               /   
 |            /                                                      /    
 |           /                                                      /     
 |          /                                                      /      
 |         /                                                      /       
 |        /                                                      /        
 |       /                                                      /         
 |      /                                                      /          
 |     /                                                      /           
 |    /                                                      /            
 |   /                                                      /             
 |  /                                                      /              
 | /                                                      /               
 |/                                                      /                
 *------------------------------------------------------*                 

Positions:
   0 Al    12.234857   10.130772    6.099747    ( 0.0000,  0.0000,  0.0000)
   1 Al    10.286586   12.076320    6.093502    ( 0.0000,  0.0000,  0.0000)
   2 Al    14.179135   12.076320    6.099505    ( 0.0000,  0.0000,  0.0000)
   3 Al    12.234858   14.021868    6.099748    ( 0.0000,  0.0000,  0.0000)
   4 Al    12.219163    6.160206   10.035117    ( 0.0000,  0.0000,  0.0000)
   5 Al    12.226691    8.077019    7.992368    ( 0.0000,  0.0000,  0.0000)
   6 Al    10.188442    8.038192    9.939612    ( 0.0000,  0.0000,  0.0000)
   7 Al    14.254979    8.068294    9.943399    ( 0.0000,  0.0000,  0.0000)
   8 Al     8.220381   12.076321    7.988254    ( 0.0000,  0.0000,  0.0000)
   9 Al     8.174585   10.054569    9.941679    ( 0.0000,  0.0000,  0.0000)
  10 Al     6.280912   12.076321   10.021885    ( 0.0000,  0.0000,  0.0000)
  11 Al    10.183547   10.038098    7.965761    ( 0.0000,  0.0000,  0.0000)
  12 Al    12.226823   12.076320    8.044834    ( 0.0000,  0.0000,  0.0000)
  13 Al    12.212816   10.033252    9.915613    ( 0.0000,  0.0000,  0.0000)
  14 Al    10.178423   12.076320    9.914351    ( 0.0000,  0.0000,  0.0000)
  15 Al    14.267580   10.047920    7.988445    ( 0.0000,  0.0000,  0.0000)
  16 Al    14.216888   12.076319    9.959854    ( 0.0000,  0.0000,  0.0000)
  17 Al    16.175817   12.076319    8.045454    ( 0.0000,  0.0000,  0.0000)
  18 Al    16.230045   10.121524   10.019199    ( 0.0000,  0.0000,  0.0000)
  19 Al     8.174586   14.098071    9.941681    ( 0.0000,  0.0000,  0.0000)
  20 Al    10.183548   14.114542    7.965762    ( 0.0000,  0.0000,  0.0000)
  21 Al    12.226692   16.075619    7.992370    ( 0.0000,  0.0000,  0.0000)
  22 Al    12.212817   14.119386    9.915614    ( 0.0000,  0.0000,  0.0000)
  23 Al    10.188443   16.114447    9.939615    ( 0.0000,  0.0000,  0.0000)
  24 Al    14.267581   14.104718    7.988446    ( 0.0000,  0.0000,  0.0000)
  25 Al    14.254981   16.084342    9.943402    ( 0.0000,  0.0000,  0.0000)
  26 Al    12.219165   17.992430   10.035120    ( 0.0000,  0.0000,  0.0000)
  27 Al    16.230046   14.031112   10.019199    ( 0.0000,  0.0000,  0.0000)
  28 Al     8.277799    6.202986   13.970128    ( 0.0000,  0.0000,  0.0000)
  29 Al     8.197917    8.079889   11.937671    ( 0.0000,  0.0000,  0.0000)
  30 Al     6.295160    8.161591   13.961511    ( 0.0000,  0.0000,  0.0000)
  31 Al     8.206594    8.132364   15.983267    ( 0.0000,  0.0000,  0.0000)
  32 Al    10.251889    6.131639   12.010234    ( 0.0000,  0.0000,  0.0000)
  33 Al    12.186175    6.147276   13.938986    ( 0.0000,  0.0000,  0.0000)
  34 Al    14.163465    6.173308   11.981280    ( 0.0000,  0.0000,  0.0000)
  35 Al    12.223784    8.122075   11.949432    ( 0.0000,  0.0000,  0.0000)
  36 Al    10.222489    8.141675   13.954889    ( 0.0000,  0.0000,  0.0000)
  37 Al    14.235531    8.089142   13.974420    ( 0.0000,  0.0000,  0.0000)
  38 Al    10.223526    6.212674   15.913161    ( 0.0000,  0.0000,  0.0000)
  39 Al    12.245143    8.098087   15.979354    ( 0.0000,  0.0000,  0.0000)
  40 Al    16.146993    8.140395   11.964183    ( 0.0000,  0.0000,  0.0000)
  41 Al     6.233373   10.128616   12.002360    ( 0.0000,  0.0000,  0.0000)
  42 Al     8.241879   12.076319   11.944310    ( 0.0000,  0.0000,  0.0000)
  43 Al     8.246898   10.091285   13.936397    ( 0.0000,  0.0000,  0.0000)
  44 Al     6.196812   12.076319   13.951513    ( 0.0000,  0.0000,  0.0000)
  45 Al     6.258114   10.140972   15.907424    ( 0.0000,  0.0000,  0.0000)
  46 Al     8.280960   12.076318   15.900214    ( 0.0000,  0.0000,  0.0000)
  47 Al    10.202543   10.055975   11.897146    ( 0.0000,  0.0000,  0.0000)
  48 Al    12.195077   12.076319   11.901374    ( 0.0000,  0.0000,  0.0000)
  49 Al    12.245280   10.065867   13.956945    ( 0.0000,  0.0000,  0.0000)
  50 Al    10.260484   12.076318   13.908310    ( 0.0000,  0.0000,  0.0000)
  51 Al    14.199902   10.083469   11.932107    ( 0.0000,  0.0000,  0.0000)
  52 Al    14.189380   12.076317   13.928123    ( 0.0000,  0.0000,  0.0000)
  53 Al    10.242300   10.095988   15.939122    ( 0.0000,  0.0000,  0.0000)
  54 Al    12.231039   12.076317   15.934444    ( 0.0000,  0.0000,  0.0000)
  55 Al    14.234403   10.073509   15.961768    ( 0.0000,  0.0000,  0.0000)
  56 Al    16.250616   12.076318   11.956697    ( 0.0000,  0.0000,  0.0000)
  57 Al    16.189778   10.127219   13.900372    ( 0.0000,  0.0000,  0.0000)
  58 Al    16.139767   12.076315   15.874735    ( 0.0000,  0.0000,  0.0000)
  59 Al     6.233374   14.024024   12.002362    ( 0.0000,  0.0000,  0.0000)
  60 Al     8.197919   16.072750   11.937675    ( 0.0000,  0.0000,  0.0000)
  61 Al     8.246898   14.061352   13.936400    ( 0.0000,  0.0000,  0.0000)
  62 Al     6.295163   15.991048   13.961516    ( 0.0000,  0.0000,  0.0000)
  63 Al     8.277803   17.949651   13.970135    ( 0.0000,  0.0000,  0.0000)
  64 Al     6.258115   14.011664   15.907426    ( 0.0000,  0.0000,  0.0000)
  65 Al     8.206596   16.020270   15.983272    ( 0.0000,  0.0000,  0.0000)
  66 Al    10.202543   14.096663   11.897148    ( 0.0000,  0.0000,  0.0000)
  67 Al    12.223785   16.030560   11.949436    ( 0.0000,  0.0000,  0.0000)
  68 Al    12.245281   14.086768   13.956948    ( 0.0000,  0.0000,  0.0000)
  69 Al    10.222491   16.010960   13.954894    ( 0.0000,  0.0000,  0.0000)
  70 Al    14.199903   14.069167   11.932109    ( 0.0000,  0.0000,  0.0000)
  71 Al    14.235533   16.063491   13.974424    ( 0.0000,  0.0000,  0.0000)
  72 Al    10.251892   18.020998   12.010239    ( 0.0000,  0.0000,  0.0000)
  73 Al    12.186178   18.005358   13.938992    ( 0.0000,  0.0000,  0.0000)
  74 Al    14.163467   17.979326   11.981285    ( 0.0000,  0.0000,  0.0000)
  75 Al    10.242300   14.056646   15.939125    ( 0.0000,  0.0000,  0.0000)
  76 Al    12.245145   16.054545   15.979359    ( 0.0000,  0.0000,  0.0000)
  77 Al    14.234404   14.079122   15.961771    ( 0.0000,  0.0000,  0.0000)
  78 Al    10.223529   17.939959   15.913169    ( 0.0000,  0.0000,  0.0000)
  79 Al    16.146995   16.012240   11.964186    ( 0.0000,  0.0000,  0.0000)
  80 Al    16.189779   14.025415   13.900375    ( 0.0000,  0.0000,  0.0000)
  81 Al    10.228689    8.176573   17.895855    ( 0.0000,  0.0000,  0.0000)
  82 Al     8.270909   10.148477   17.927885    ( 0.0000,  0.0000,  0.0000)
  83 Al     6.333074   12.076317   17.836281    ( 0.0000,  0.0000,  0.0000)
  84 Al    12.196194   10.138854   17.943726    ( 0.0000,  0.0000,  0.0000)
  85 Al    10.234585   12.076316   17.988952    ( 0.0000,  0.0000,  0.0000)
  86 Al    14.183610   12.076315   17.876077    ( 0.0000,  0.0000,  0.0000)
  87 Al     8.270910   14.004156   17.927888    ( 0.0000,  0.0000,  0.0000)
  88 Al    12.196195   14.013776   17.943729    ( 0.0000,  0.0000,  0.0000)
  89 Al    10.228691   15.976058   17.895861    ( 0.0000,  0.0000,  0.0000)

Unit cell:
           periodic     x           y           z      points  spacing
  1. axis:    yes   22.452310    0.000000    0.000000   112     0.2005
  2. axis:    yes    0.000000   24.152640    0.000000   120     0.2013
  3. axis:    yes    0.000000    0.000000   24.176400   120     0.2015

  Lengths:  22.452310  24.152640  24.176400
  Angles:   90.000000  90.000000  90.000000

Effective grid spacing dv^(1/3) = 0.2011

                     log10-error:    total        iterations:
           time      wfs    density  energy       fermi  poisson
iter:   1  18:44:08  +1.14   +inf  -335.625718    3      1      
iter:   2  18:48:10  +0.17  -0.85  -334.298265    4      1      
iter:   3  18:52:05  +0.45  -0.86  -330.186650    36     1      
iter:   4  18:55:05  -0.12  -0.97  -332.542931    34     1      
iter:   5  18:58:22  +0.36  -0.94  -331.327521    38     1      
iter:   6  19:01:26  +0.61  -1.24  -337.740803    36     1      
iter:   7  19:04:32  -0.18  -1.02  -330.074785    35     1      
iter:   8  19:08:09  +0.35  -1.16  -348.561800    37     1      
iter:   9  19:11:22  -0.15  -0.83  -335.965277    36     1      
iter:  10  19:15:20  +0.54  -0.96  -328.862324    34     1      
iter:  11  19:19:29  -0.56  -1.38  -329.831239    3      1      
iter:  12  19:24:02  +0.06  -1.35  -329.021367    36     1      
iter:  13  19:27:18  -1.14  -1.78  -328.779384    3      1      
iter:  14  19:30:39  -0.72  -2.00  -328.892063    3      1      
iter:  15  19:34:10  -1.42  -1.94  -328.712177    4      1      
iter:  16  19:37:03  -0.92  -2.26  -328.785195    3      1      
iter:  17  19:42:11  -1.63  -2.13  -328.731658    3      1      
iter:  18  19:47:13  -2.58  -2.41  -328.725331    3      1      
iter:  19  19:59:58  -2.14  -2.48  -328.718237    3      1      
iter:  20  20:07:08  -2.91  -2.68  -328.716739    3      1      
iter:  21  20:13:10  -3.07  -2.81  -328.715987    3      1      
iter:  22  20:16:45  -3.31  -2.96  -328.717086    2      1      
iter:  23  20:20:12  -3.42  -3.01  -328.717213    3      1      
iter:  24  20:24:07  -3.74  -3.16  -328.716859    3      1      
iter:  25  20:27:31  -4.28  -3.22  -328.716994    2      1      
iter:  26  20:31:26  -3.58  -3.37  -328.718221    3      1      
iter:  27  20:34:43  -4.08  -3.19  -328.717396    3      1      
iter:  28  20:38:47  -4.18  -3.50  -328.717112    2      1      
iter:  29  20:41:55  -4.31  -3.74  -328.716989    2      1      
iter:  30  20:45:26  -5.38  -3.80  -328.717038    2      1      
iter:  31  20:49:06  -5.67  -3.91  -328.717024    2      1      
iter:  32  20:51:57  -5.45  -4.01  -328.717009    2      1      
iter:  33  20:55:10  -5.59  -4.02  -328.717096    2      1      
iter:  34  20:58:35  -5.52  -4.17  -328.717018    2      1      
iter:  35  21:03:01  -6.30  -4.11  -328.716986    2      1      
iter:  36  21:06:33  -5.78  -4.36  -328.717015    2      1      
iter:  37  21:10:25  -6.89  -4.75  -328.717014    2      1      
iter:  38  21:13:33  -6.88  -4.79  -328.717005    2      1      
iter:  39  21:16:59  -7.13  -4.88  -328.717018    2      1      
iter:  40  21:20:21  -7.21  -5.10  -328.717020    2      1      
iter:  41  21:23:57  -7.47  -5.09  -328.717012    2      1      

Converged after 41 iterations.

Dipole moment: (-0.007867, 0.000025, -0.100682) |e|*Ang

Energy contributions relative to reference atoms: (reference = -592057.917662)

Kinetic:       +367.013739
Potential:     -235.823847
External:        +0.000000
XC:            -458.877882
Entropy (-ST):   -1.373149
Local:           -0.342447
--------------------------
Free energy:   -329.403587
Extrapolated:  -328.717012

Fermi level: -2.98404

 Band  Eigenvalues  Occupancy
    0    -13.63185    2.00000
    1    -13.05575    2.00000
    2    -13.00458    2.00000
    3    -12.77830    2.00000
    4    -12.27931    2.00000
    5    -12.27442    2.00000
    6    -12.12279    2.00000
    7    -11.99884    2.00000
    8    -11.81739    2.00000
    9    -11.49597    2.00000
   10    -11.40807    2.00000
   11    -11.26526    2.00000
   12    -11.08059    2.00000
   13    -11.06225    2.00000
   14    -11.04480    2.00000
   15    -10.92584    2.00000
   16    -10.89826    2.00000
   17    -10.39118    2.00000
   18    -10.33789    2.00000
   19    -10.30362    2.00000
   20    -10.10966    2.00000
   21    -10.01511    2.00000
   22     -9.92095    2.00000
   23     -9.90253    2.00000
   24     -9.84293    2.00000
   25     -9.73989    2.00000
   26     -9.70580    2.00000
   27     -9.63319    2.00000
   28     -9.63200    2.00000
   29     -9.28209    2.00000
   30     -9.22402    2.00000
   31     -9.15570    2.00000
   32     -9.02617    2.00000
   33     -9.00899    2.00000
   34     -8.73309    2.00000
   35     -8.66532    2.00000
   36     -8.59753    2.00000
   37     -8.50163    2.00000
   38     -8.47474    2.00000
   39     -8.44111    2.00000
   40     -8.34429    2.00000
   41     -8.29217    2.00000
   42     -8.20685    2.00000
   43     -8.14444    2.00000
   44     -8.09759    2.00000
   45     -8.01722    2.00000
   46     -7.92989    2.00000
   47     -7.83997    2.00000
   48     -7.80168    2.00000
   49     -7.65597    2.00000
   50     -7.61020    2.00000
   51     -7.42207    2.00000
   52     -7.36758    2.00000
   53     -7.33025    2.00000
   54     -7.26448    2.00000
   55     -7.16394    2.00000
   56     -7.10670    2.00000
   57     -7.04186    2.00000
   58     -6.97788    2.00000
   59     -6.91922    2.00000
   60     -6.90354    2.00000
   61     -6.88696    2.00000
   62     -6.78030    2.00000
   63     -6.77066    2.00000
   64     -6.67755    2.00000
   65     -6.53522    2.00000
   66     -6.36766    2.00000
   67     -6.34593    2.00000
   68     -6.31856    2.00000
   69     -6.24615    2.00000
   70     -6.19823    2.00000
   71     -6.11812    2.00000
   72     -6.10656    2.00000
   73     -6.03685    2.00000
   74     -6.00474    2.00000
   75     -5.92763    2.00000
   76     -5.88307    2.00000
   77     -5.80682    2.00000
   78     -5.72317    2.00000
   79     -5.61519    2.00000
   80     -5.52240    2.00000
   81     -5.49113    2.00000
   82     -5.48134    2.00000
   83     -5.40267    2.00000
   84     -5.37843    2.00000
   85     -5.36014    2.00000
   86     -5.34762    2.00000
   87     -5.30557    2.00000
   88     -5.26993    2.00000
   89     -5.17580    2.00000
   90     -5.08132    2.00000
   91     -5.06154    2.00000
   92     -5.00370    2.00000
   93     -4.97877    2.00000
   94     -4.97415    2.00000
   95     -4.92570    2.00000
   96     -4.86597    2.00000
   97     -4.82439    2.00000
   98     -4.62166    2.00000
   99     -4.56395    2.00000
  100     -4.53408    2.00000
  101     -4.50543    2.00000
  102     -4.45691    2.00000
  103     -4.38695    2.00000
  104     -4.36898    2.00000
  105     -4.34037    2.00000
  106     -4.34007    2.00000
  107     -4.23218    1.99999
  108     -4.22581    1.99999
  109     -4.08588    1.99997
  110     -4.04224    1.99995
  111     -3.98888    1.99991
  112     -3.96127    1.99989
  113     -3.93748    1.99986
  114     -3.84066    1.99962
  115     -3.82327    1.99955
  116     -3.75517    1.99910
  117     -3.72229    1.99876
  118     -3.71634    1.99868
  119     -3.70287    1.99849
  120     -3.58724    1.99521
  121     -3.56600    1.99408
  122     -3.52559    1.99115
  123     -3.47468    1.98531
  124     -3.43171    1.97751
  125     -3.42953    1.97702
  126     -3.37880    1.96213
  127     -3.36524    1.95675
  128     -3.31382    1.92871
  129     -3.23081    1.84369
  130     -3.20995    1.81087
  131     -3.19827    1.78989
  132     -3.16850    1.72699
  133     -3.04594    1.29999
  134     -2.96467    0.90345
  135     -2.92941    0.73344
  136     -2.92266    0.70241
  137     -2.87571    0.50578
  138     -2.78078    0.23165
  139     -2.76663    0.20421
  140     -2.72169    0.13528
  141     -2.69433    0.10459
  142     -2.66366    0.07804
  143     -2.64066    0.06251
  144     -2.62535    0.05387
  145     -2.55006    0.02574
  146     -2.47907    0.01274
  147     -2.43164    0.00795
  148     -2.30564    0.00226
  149     -2.27940    0.00174
  150     -2.10843    0.00031
  151     -2.08794    0.00026
  152     -2.04350    0.00016
  153     -2.03860    0.00016
  154     -1.97769    0.00009
  155     -1.95780    0.00007
  156     -1.94874    0.00006
  157     -1.93326    0.00005
  158     -1.91301    0.00004
  159     -1.85161    0.00002
  160     -1.79919    0.00001
  161     -1.77219    0.00001
  162     -1.73638    0.00001
  163     -1.70649    0.00001
  164     -1.69814    0.00001
  165     -1.63099    0.00000

Gap: 0.081 eV
Transition (v -> c):
  (s=0, k=0, n=133, [0.00, 0.00, 0.00]) -> (s=0, k=0, n=134, [0.00, 0.00, 0.00])
Writing to myCalc_90.gpw (mode='all')

System changes: cell, numbers, positions 

Initialize ...

Al-setup:
  name: Aluminium
  id: 2e6447feaea722efcff26bf034b25f30
  Z: 13
  valence: 3
  core: 10
  charge: 0.0
  file: /usr/bin/gpaw-setups-0.9.20000/Al.LDA.gz
  compensation charges: gauss, rc=0.34, lmax=2
  cutoffs: 1.91(filt), 2.36(core),
  valence states:
                energy  radius
    3s(2.00)    -7.830   1.085
    3p(1.00)    -2.783   1.085
    *s          19.382   1.085
    *p          24.428   1.085
    *d           0.000   1.085

  Using partial waves for Al as LCAO basis

Reference energy: -85519.476996

Spin-paired calculation

Occupation numbers:
  Fermi-Dirac: width=0.1000 eV

Convergence criteria:
  Maximum total energy change: 0.0005 eV / electron
  Maximum integral of absolute density change: 0.0001 electrons
  Maximum integral of absolute eigenstate change: 4e-08 eV^2
  Maximum number of iterations: 333

Symmetries present (total): 48

  ( 1  0  0)  ( 1  0  0)  ( 1  0  0)  ( 1  0  0)  ( 1  0  0)  ( 1  0  0)
  ( 0  1  0)  ( 0  1  0)  ( 0  0  1)  ( 0  0  1)  ( 0  0 -1)  ( 0  0 -1)
  ( 0  0  1)  ( 0  0 -1)  ( 0  1  0)  ( 0 -1  0)  ( 0  1  0)  ( 0 -1  0)

  ( 1  0  0)  ( 1  0  0)  ( 0  1  0)  ( 0  1  0)  ( 0  1  0)  ( 0  1  0)
  ( 0 -1  0)  ( 0 -1  0)  ( 1  0  0)  ( 1  0  0)  ( 0  0  1)  ( 0  0  1)
  ( 0  0  1)  ( 0  0 -1)  ( 0  0  1)  ( 0  0 -1)  ( 1  0  0)  (-1  0  0)

  ( 0  1  0)  ( 0  1  0)  ( 0  1  0)  ( 0  1  0)  ( 0  0  1)  ( 0  0  1)
  ( 0  0 -1)  ( 0  0 -1)  (-1  0  0)  (-1  0  0)  ( 1  0  0)  ( 1  0  0)
  ( 1  0  0)  (-1  0  0)  ( 0  0  1)  ( 0  0 -1)  ( 0  1  0)  ( 0 -1  0)

  ( 0  0  1)  ( 0  0  1)  ( 0  0  1)  ( 0  0  1)  ( 0  0  1)  ( 0  0  1)
  ( 0  1  0)  ( 0  1  0)  ( 0 -1  0)  ( 0 -1  0)  (-1  0  0)  (-1  0  0)
  ( 1  0  0)  (-1  0  0)  ( 1  0  0)  (-1  0  0)  ( 0  1  0)  ( 0 -1  0)

  ( 0  0 -1)  ( 0  0 -1)  ( 0  0 -1)  ( 0  0 -1)  ( 0  0 -1)  ( 0  0 -1)
  ( 1  0  0)  ( 1  0  0)  ( 0  1  0)  ( 0  1  0)  ( 0 -1  0)  ( 0 -1  0)
  ( 0  1  0)  ( 0 -1  0)  ( 1  0  0)  (-1  0  0)  ( 1  0  0)  (-1  0  0)

  ( 0  0 -1)  ( 0  0 -1)  ( 0 -1  0)  ( 0 -1  0)  ( 0 -1  0)  ( 0 -1  0)
  (-1  0  0)  (-1  0  0)  ( 1  0  0)  ( 1  0  0)  ( 0  0  1)  ( 0  0  1)
  ( 0  1  0)  ( 0 -1  0)  ( 0  0  1)  ( 0  0 -1)  ( 1  0  0)  (-1  0  0)

  ( 0 -1  0)  ( 0 -1  0)  ( 0 -1  0)  ( 0 -1  0)  (-1  0  0)  (-1  0  0)
  ( 0  0 -1)  ( 0  0 -1)  (-1  0  0)  (-1  0  0)  ( 0  1  0)  ( 0  1  0)
  ( 1  0  0)  (-1  0  0)  ( 0  0  1)  ( 0  0 -1)  ( 0  0  1)  ( 0  0 -1)

  (-1  0  0)  (-1  0  0)  (-1  0  0)  (-1  0  0)  (-1  0  0)  (-1  0  0)
  ( 0  0  1)  ( 0  0  1)  ( 0  0 -1)  ( 0  0 -1)  ( 0 -1  0)  ( 0 -1  0)
  ( 0  1  0)  ( 0 -1  0)  ( 0  1  0)  ( 0 -1  0)  ( 0  0  1)  ( 0  0 -1)

1 k-point (Gamma)
1 k-point in the irreducible part of the Brillouin zone
       k-points in crystal coordinates                weights
   0:     0.00000000    0.00000000    0.00000000          1/1

Wave functions: Uniform real-space grid
  Kinetic energy operator: 6*3+1=19 point O(h^6) finite-difference Laplacian
  ScaLapack parameters: grid=1x1, blocksize=None
  Wavefunction extrapolation:
    Improved wavefunction reuse through dual PAW basis 

Eigensolver
   Davidson(niter=2, smin=None, normalize=True) 

Densities:
  Coarse grid: 80*80*80 grid
  Fine grid: 160*160*160 grid
  Total Charge: 0.000000 

Density mixing:
  Method: separate
  Backend: pulay
  Linear mixing parameter: 0.05
  Mixing with 5 old densities
  Damping of long wave oscillations: 50 

Hamiltonian:
  XC and Coulomb potentials evaluated on a 160*160*160 grid
  Using the LDA Exchange-Correlation functional
  Interpolation: tri-quintic (5. degree polynomial)
  Poisson solver: FastPoissonSolver using
    6*3+1=19 point O(h^6) finite-difference Laplacian stencil;
    FFT axes: [0, 1, 2];
    FST axes: [].
 

Memory estimate:
  Process memory now: 2305.86 MiB
  Calculator: 493.05 MiB
    Density: 180.53 MiB
      Arrays: 101.56 MiB
      Localized functions: 39.90 MiB
      Mixer: 39.06 MiB
    Hamiltonian: 69.35 MiB
      Arrays: 66.41 MiB
      XC: 0.00 MiB
      Poisson: 0.00 MiB
      vbar: 2.95 MiB
    Wavefunctions: 243.17 MiB
      Arrays psit_nG: 109.38 MiB
      Eigensolver: 128.97 MiB
      Projections: 0.04 MiB
      Projectors: 4.79 MiB

Total number of cores used: 1

Number of atoms: 13
Number of atomic orbitals: 52
Number of bands in calculation: 28
Bands to converge: occupied states only
Number of valence electrons: 39

... initialized

Initializing position-dependent things.

Density initialized from atomic densities
Creating initial wave functions:
  28 bands from LCAO basis set

           .--------------------------------------.  
          /|                                      |  
         / |                                      |  
        /  |                                      |  
       /   |                                      |  
      /    |                                      |  
     /     |                                      |  
    /      |                                      |  
   /       |                                      |  
  /        |                                      |  
 *         |                                      |  
 |         |               Al                     |  
 |         |         Al       Al                  |  
 |         |          AlAl     Al                 |  
 |         |                                      |  
 |         |             Al                       |  
 |         |        Al     AlAl                   |  
 |         |         Al       Al                  |  
 |         |            Al                        |  
 |         .--------------------------------------.  
 |        /                                      /   
 |       /                                      /    
 |      /                                      /     
 |     /                                      /      
 |    /                                      /       
 |   /                                      /        
 |  /                                      /         
 | /                                      /          
 |/                                      /           
 *--------------------------------------*            

Positions:
   0 Al     7.930480    6.008194    6.008194    ( 0.0000,  0.0000,  0.0000)
   1 Al     6.008194    7.930480    6.008194    ( 0.0000,  0.0000,  0.0000)
   2 Al     9.852766    7.930480    6.008194    ( 0.0000,  0.0000,  0.0000)
   3 Al     7.930480    9.852766    6.008194    ( 0.0000,  0.0000,  0.0000)
   4 Al     6.008194    6.008194    7.930480    ( 0.0000,  0.0000,  0.0000)
   5 Al     9.852766    6.008194    7.930480    ( 0.0000,  0.0000,  0.0000)
   6 Al     7.930480    6.008194    9.852766    ( 0.0000,  0.0000,  0.0000)
   7 Al     6.008194    9.852766    7.930480    ( 0.0000,  0.0000,  0.0000)
   8 Al     6.008194    7.930480    9.852766    ( 0.0000,  0.0000,  0.0000)
   9 Al     7.930480    7.930480    7.930480    ( 0.0000,  0.0000,  0.0000)
  10 Al     9.852766    9.852766    7.930480    ( 0.0000,  0.0000,  0.0000)
  11 Al     9.852766    7.930480    9.852766    ( 0.0000,  0.0000,  0.0000)
  12 Al     7.930480    9.852766    9.852766    ( 0.0000,  0.0000,  0.0000)

Unit cell:
           periodic     x           y           z      points  spacing
  1. axis:    yes   15.860960    0.000000    0.000000    80     0.1983
  2. axis:    yes    0.000000   15.860960    0.000000    80     0.1983
  3. axis:    yes    0.000000    0.000000   15.860960    80     0.1983

  Lengths:  15.860960  15.860960  15.860960
  Angles:   90.000000  90.000000  90.000000

Effective grid spacing dv^(1/3) = 0.1983

                     log10-error:    total        iterations:
           time      wfs    density  energy       fermi  poisson
iter:   1  21:24:53  +1.15   +inf   -42.485997    5      1      
iter:   2  21:25:01  +0.16  -0.79   -42.175571    5      1      
iter:   3  21:25:09  +0.81  -0.80   -40.215085    35     1      
iter:   4  21:25:16  +0.51  -1.16   -40.558137    5      1      
iter:   5  21:25:24  -0.38  -1.23   -40.230890    33     1      
iter:   6  21:25:32  -0.60  -1.43   -40.284243    5      1      
iter:   7  21:25:40  -0.48  -1.62   -40.475313    5      1      
iter:   8  21:25:47  -1.25  -1.32   -40.512464    3      1      
iter:   9  21:25:55  -1.32  -1.29   -40.363692    5      1      
iter:  10  21:26:03  -0.93  -1.37   -40.246940    31     1      
iter:  11  21:26:11  -0.62  -1.72   -40.235638    6      1      
iter:  12  21:26:18  -1.90  -2.21   -40.229388    4      1      
iter:  13  21:26:26  -2.02  -2.45   -40.231236    3      1      
iter:  14  21:26:34  -2.17  -2.40   -40.230632    4      1      
iter:  15  21:26:42  -2.53  -2.48   -40.231847    3      1      
iter:  16  21:26:49  -2.60  -2.37   -40.233062    3      1      
iter:  17  21:26:57  -2.31  -2.27   -40.229005    4      1      
iter:  18  21:27:05  -2.34  -2.83   -40.229190    3      1      
iter:  19  21:27:13  -4.22  -2.96   -40.229201    3      1      
iter:  20  21:27:20  -3.34  -3.03   -40.229466    3      1      
iter:  21  21:27:28  -3.19  -2.87   -40.230022    3      1      
iter:  22  21:27:36  -3.93  -2.62   -40.230197    2      1      
iter:  23  21:27:43  -3.68  -2.60   -40.229598    3      1      
iter:  24  21:27:51  -3.20  -2.79   -40.229177    3      1      
iter:  25  21:27:59  -3.60  -3.15   -40.229165    3      1      
iter:  26  21:28:07  -3.58  -3.22   -40.229375    3      1      
iter:  27  21:28:14  -3.55  -2.86   -40.229161    3      1      
iter:  28  21:28:22  -3.24  -3.25   -40.229188    3      1      
iter:  29  21:28:30  -3.89  -3.42   -40.229209    2      1      
iter:  30  21:28:38  -5.03  -3.23   -40.229201    3      1      
iter:  31  21:28:45  -4.73  -3.24   -40.229171    3      1      
iter:  32  21:28:53  -5.67  -3.51   -40.229180    2      1      
iter:  33  21:29:01  -5.21  -3.43   -40.229190    3      1      
iter:  34  21:29:08  -5.74  -3.33   -40.229192    2      1      
iter:  35  21:29:16  -4.97  -3.30   -40.229166    3      1      
iter:  36  21:29:24  -4.90  -4.01   -40.229166    3      1      
iter:  37  21:29:32  -5.75  -4.19   -40.229167    3      1      
iter:  38  21:29:39  -5.82  -4.04   -40.229166    3      1      
iter:  39  21:29:47  -6.44  -4.31   -40.229166    2      1      
iter:  40  21:29:55  -5.81  -4.15   -40.229166    2      1      
iter:  41  21:30:03  -7.13  -4.37   -40.229166    2      1      
iter:  42  21:30:10  -7.07  -4.43   -40.229166    2      1      
iter:  43  21:30:18  -7.95  -4.57   -40.229166    2      1      

Converged after 43 iterations.

Dipole moment: (0.000014, 0.000014, 0.000014) |e|*Ang

Energy contributions relative to reference atoms: (reference = -85519.476996)

Kinetic:        +49.629800
Potential:      -37.247536
External:        +0.000000
XC:             -52.441591
Entropy (-ST):   -0.271813
Local:           -0.033933
--------------------------
Free energy:    -40.365072
Extrapolated:   -40.229166

Fermi level: -3.97937

 Band  Eigenvalues  Occupancy
    0    -13.00000    2.00000
    1    -10.67657    2.00000
    2    -10.67657    2.00000
    3    -10.67657    2.00000
    4     -8.30976    2.00000
    5     -8.30976    2.00000
    6     -8.30976    2.00000
    7     -7.14699    2.00000
    8     -7.14699    2.00000
    9     -6.99321    2.00000
   10     -5.60296    2.00000
   11     -5.24299    1.99999
   12     -5.24299    1.99999
   13     -5.24299    1.99999
   14     -4.79607    1.99943
   15     -4.79607    1.99943
   16     -4.79607    1.99943
   17     -4.14051    1.66720
   18     -4.14051    1.66720
   19     -4.14051    1.66720
   20     -2.89783    0.00004
   21     -2.89783    0.00004
   22     -2.89783    0.00004
   23     -2.53897    0.00000
   24     -2.53897    0.00000
   25     -1.90211    0.00000
   26     -1.90211    0.00000
   27     -1.90211    0.00000

Gap: 1.243 eV
Transition (v -> c):
  (s=0, k=0, n=19, [0.00, 0.00, 0.00]) -> (s=0, k=0, n=20, [0.00, 0.00, 0.00])
Writing to myCalc_13.gpw (mode='all')

System changes: cell, numbers, positions 

Initialize ...

Al-setup:
  name: Aluminium
  id: 2e6447feaea722efcff26bf034b25f30
  Z: 13
  valence: 3
  core: 10
  charge: 0.0
  file: /usr/bin/gpaw-setups-0.9.20000/Al.LDA.gz
  compensation charges: gauss, rc=0.34, lmax=2
  cutoffs: 1.91(filt), 2.36(core),
  valence states:
                energy  radius
    3s(2.00)    -7.830   1.085
    3p(1.00)    -2.783   1.085
    *s          19.382   1.085
    *p          24.428   1.085
    *d           0.000   1.085

  Using partial waves for Al as LCAO basis

Reference energy: -249980.009679

Spin-paired calculation

Occupation numbers:
  Fermi-Dirac: width=0.1000 eV

Convergence criteria:
  Maximum total energy change: 0.0005 eV / electron
  Maximum integral of absolute density change: 0.0001 electrons
  Maximum integral of absolute eigenstate change: 4e-08 eV^2
  Maximum number of iterations: 333

Symmetries present (total): 8

  ( 1  0  0)  ( 1  0  0)  ( 0  0  1)  ( 0  0  1)  ( 0  0 -1)  ( 0  0 -1)
  ( 0  1  0)  ( 0  1  0)  ( 0  1  0)  ( 0  1  0)  ( 0  1  0)  ( 0  1  0)
  ( 0  0  1)  ( 0  0 -1)  ( 1  0  0)  (-1  0  0)  ( 1  0  0)  (-1  0  0)

  (-1  0  0)  (-1  0  0)
  ( 0  1  0)  ( 0  1  0)
  ( 0  0  1)  ( 0  0 -1)

1 k-point (Gamma)
1 k-point in the irreducible part of the Brillouin zone
       k-points in crystal coordinates                weights
   0:     0.00000000    0.00000000    0.00000000          1/1

Wave functions: Uniform real-space grid
  Kinetic energy operator: 6*3+1=19 point O(h^6) finite-difference Laplacian
  ScaLapack parameters: grid=1x1, blocksize=None
  Wavefunction extrapolation:
    Improved wavefunction reuse through dual PAW basis 

Eigensolver
   Davidson(niter=2, smin=None, normalize=True) 

Densities:
  Coarse grid: 100*100*100 grid
  Fine grid: 200*200*200 grid
  Total Charge: 0.000000 

Density mixing:
  Method: separate
  Backend: pulay
  Linear mixing parameter: 0.05
  Mixing with 5 old densities
  Damping of long wave oscillations: 50 

Hamiltonian:
  XC and Coulomb potentials evaluated on a 200*200*200 grid
  Using the LDA Exchange-Correlation functional
  Interpolation: tri-quintic (5. degree polynomial)
  Poisson solver: FastPoissonSolver using
    6*3+1=19 point O(h^6) finite-difference Laplacian stencil;
    FFT axes: [0, 1, 2];
    FST axes: [].
 

Memory estimate:
  Process memory now: 2617.93 MiB
  Calculator: 1694.28 MiB
    Density: 389.57 MiB
      Arrays: 198.36 MiB
      Localized functions: 114.91 MiB
      Mixer: 76.29 MiB
    Hamiltonian: 138.19 MiB
      Arrays: 129.70 MiB
      XC: 0.00 MiB
      Poisson: 0.00 MiB
      vbar: 8.49 MiB
    Wavefunctions: 1166.52 MiB
      Arrays psit_nG: 556.95 MiB
      Eigensolver: 595.50 MiB
      Projections: 0.28 MiB
      Projectors: 13.80 MiB

Total number of cores used: 1

Number of atoms: 38
Number of atomic orbitals: 152
Number of bands in calculation: 73
Bands to converge: occupied states only
Number of valence electrons: 114

... initialized

Initializing position-dependent things.

Density initialized from atomic densities
Creating initial wave functions:
  73 bands from LCAO basis set

             .------------------------------------------------.  
            /|                                                |  
           / |                                                |  
          /  |                                                |  
         /   |                                                |  
        /    |                                                |  
       /     |                                                |  
      /      |                                                |  
     /       |                                                |  
    /        |                                                |  
   /         |                                                |  
  /          |                                                |  
 *           |                   Al                           |  
 |           |             Al     AlAl                        |  
 |           |              AlAl      Al                      |  
 |           |                                                |  
 |           |        Al     Al Al     AlAl                   |  
 |           |         AlAl      AlAl     Al                  |  
 |           |             AlAl   AlAl                        |  
 |           |       Al     AlAl      AlAl                    |  
 |           |        AlAl      AlAl     Al                   |  
 |           |                                                |  
 |           |           Al      AlAl                         |  
 |           |             AlAl     Al                        |  
 |           .----------------Al------------------------------.  
 |          /                                                /   
 |         /                                                /    
 |        /                                                /     
 |       /                                                /      
 |      /                                                /       
 |     /                                                /        
 |    /                                                /         
 |   /                                                /          
 |  /                                                /           
 | /                                                /            
 |/                                                /             
 *------------------------------------------------*              

Positions:
   0 Al     9.962690    6.041714    8.018219    ( 0.0000,  0.0000,  0.0000)
   1 Al     8.018218    9.962688    6.041712    ( 0.0000,  0.0000,  0.0000)
   2 Al     7.954475    7.954474    7.954475    ( 0.0000,  0.0000,  0.0000)
   3 Al     6.041712    9.962688    8.018218    ( 0.0000,  0.0000,  0.0000)
   4 Al     9.962690    8.018218    6.041713    ( 0.0000,  0.0000,  0.0000)
   5 Al    11.907162    9.962688    6.041712    ( 0.0000,  0.0000,  0.0000)
   6 Al    11.970906    7.954474    7.954475    ( 0.0000,  0.0000,  0.0000)
   7 Al     9.962690    9.962690    7.997473    ( 0.0000,  0.0000,  0.0000)
   8 Al    13.883668    9.962688    8.018218    ( 0.0000,  0.0000,  0.0000)
   9 Al     7.954475   11.970904    7.954475    ( 0.0000,  0.0000,  0.0000)
  10 Al     9.962690   11.907159    6.041713    ( 0.0000,  0.0000,  0.0000)
  11 Al    11.970905   11.970904    7.954475    ( 0.0000,  0.0000,  0.0000)
  12 Al     9.962690   13.883662    8.018220    ( 0.0000,  0.0000,  0.0000)
  13 Al     8.018219    6.041714    9.962690    ( 0.0000,  0.0000,  0.0000)
  14 Al    11.907161    6.041714    9.962690    ( 0.0000,  0.0000,  0.0000)
  15 Al     9.962690    6.041714   11.907161    ( 0.0000,  0.0000,  0.0000)
  16 Al     6.041713    8.018218    9.962690    ( 0.0000,  0.0000,  0.0000)
  17 Al     7.997473    9.962690    9.962690    ( 0.0000,  0.0000,  0.0000)
  18 Al     7.954475    7.954474   11.970906    ( 0.0000,  0.0000,  0.0000)
  19 Al     6.041712    9.962688   11.907162    ( 0.0000,  0.0000,  0.0000)
  20 Al     8.018218    9.962688   13.883668    ( 0.0000,  0.0000,  0.0000)
  21 Al     9.962690    7.997472    9.962690    ( 0.0000,  0.0000,  0.0000)
  22 Al    11.927907    9.962690    9.962690    ( 0.0000,  0.0000,  0.0000)
  23 Al    11.970906    7.954474   11.970906    ( 0.0000,  0.0000,  0.0000)
  24 Al     9.962690    9.962690   11.927907    ( 0.0000,  0.0000,  0.0000)
  25 Al    13.883667    8.018218    9.962690    ( 0.0000,  0.0000,  0.0000)
  26 Al    13.883668    9.962688   11.907162    ( 0.0000,  0.0000,  0.0000)
  27 Al     9.962690    8.018218   13.883667    ( 0.0000,  0.0000,  0.0000)
  28 Al    11.907162    9.962688   13.883668    ( 0.0000,  0.0000,  0.0000)
  29 Al     6.041713   11.907159    9.962690    ( 0.0000,  0.0000,  0.0000)
  30 Al     8.018220   13.883662    9.962690    ( 0.0000,  0.0000,  0.0000)
  31 Al     7.954475   11.970904   11.970905    ( 0.0000,  0.0000,  0.0000)
  32 Al     9.962690   11.927906    9.962690    ( 0.0000,  0.0000,  0.0000)
  33 Al    11.907161   13.883662    9.962690    ( 0.0000,  0.0000,  0.0000)
  34 Al    11.970905   11.970904   11.970905    ( 0.0000,  0.0000,  0.0000)
  35 Al     9.962690   13.883662   11.907161    ( 0.0000,  0.0000,  0.0000)
  36 Al    13.883667   11.907159    9.962690    ( 0.0000,  0.0000,  0.0000)
  37 Al     9.962690   11.907159   13.883667    ( 0.0000,  0.0000,  0.0000)

Unit cell:
           periodic     x           y           z      points  spacing
  1. axis:    yes   19.925380    0.000000    0.000000   100     0.1993
  2. axis:    yes    0.000000   19.925370    0.000000   100     0.1993
  3. axis:    yes    0.000000    0.000000   19.925380   100     0.1993

  Lengths:  19.925380  19.925370  19.925380
  Angles:   90.000000  90.000000  90.000000

Effective grid spacing dv^(1/3) = 0.1993

                     log10-error:    total        iterations:
           time      wfs    density  energy       fermi  poisson
iter:   1  21:31:11  +1.17   +inf  -134.919234    4      1      
iter:   2  21:31:36  +0.21  -0.80  -134.264921    33     1      
iter:   3  21:31:59  +0.61  -0.81  -131.628752    34     1      
iter:   4  21:32:23  +0.09  -0.98  -133.421189    35     1      
iter:   5  21:32:46  +0.08  -0.86  -132.657992    36     1      
iter:   6  21:33:09  +0.64  -1.08  -137.690227    36     1      
iter:   7  21:33:32  -0.34  -0.87  -134.876377    4      1      
iter:   8  21:33:55  -0.46  -0.92  -136.820242    3      1      
iter:   9  21:34:18  +0.25  -0.89  -131.465179    36     1      
iter:  10  21:34:40  -0.16  -1.24  -130.978128    3      1      
iter:  11  21:35:03  +0.32  -1.36  -130.812498    35     1      
iter:  12  21:35:26  -1.20  -1.70  -130.684883    4      1      
iter:  13  21:35:49  -1.03  -1.97  -130.731568    4      1      
iter:  14  21:36:12  -1.63  -1.93  -130.697656    4      1      
iter:  15  21:36:35  -2.81  -2.02  -130.684872    3      1      
iter:  16  21:36:58  -1.49  -2.09  -130.687714    4      1      
iter:  17  21:37:21  -0.96  -2.07  -130.725201    5      1      
iter:  18  21:37:44  -1.60  -1.89  -130.682670    4      1      
iter:  19  21:38:08  -2.41  -2.30  -130.673780    3      1      
iter:  20  21:38:31  -2.01  -2.51  -130.666464    3      1      
iter:  21  21:38:53  -2.97  -2.94  -130.664833    3      1      
iter:  22  21:39:16  -2.57  -2.63  -130.667091    3      1      
iter:  23  21:39:39  -3.31  -2.84  -130.669343    3      1      
iter:  24  21:40:02  -3.35  -3.18  -130.670238    3      1      
iter:  25  21:40:25  -4.65  -3.24  -130.669785    2      1      
iter:  26  21:40:48  -4.86  -3.26  -130.669289    3      1      
iter:  27  21:41:11  -4.78  -3.32  -130.669816    3      1      
iter:  28  21:41:34  -4.35  -3.55  -130.668521    3      1      
iter:  29  21:41:57  -5.16  -3.38  -130.668803    3      1      
iter:  30  21:42:20  -4.23  -3.53  -130.669515    3      1      
iter:  31  21:42:42  -5.22  -3.84  -130.669200    3      1      
iter:  32  21:43:05  -6.20  -4.10  -130.669242    2      1      
iter:  33  21:43:28  -6.03  -4.18  -130.669262    2      1      
iter:  34  21:43:51  -6.46  -4.32  -130.669165    2      1      
iter:  35  21:44:14  -6.68  -4.56  -130.669193    2      1      
iter:  36  21:44:37  -7.05  -4.54  -130.669193    2      1      
iter:  37  21:45:00  -7.09  -4.66  -130.669169    2      1      
iter:  38  21:45:23  -7.54  -4.73  -130.669190    2      1      

Converged after 38 iterations.

Dipole moment: (0.000022, 0.000022, 0.000022) |e|*Ang

Energy contributions relative to reference atoms: (reference = -249980.009679)

Kinetic:       +147.976256
Potential:      -96.671413
External:        +0.000000
XC:            -181.300730
Entropy (-ST):   -1.103537
Local:           -0.121534
--------------------------
Free energy:   -131.220958
Extrapolated:  -130.669190

Fermi level: -3.15861

 Band  Eigenvalues  Occupancy
    0    -13.70848    2.00000
    1    -12.48647    2.00000
    2    -12.48647    2.00000
    3    -12.48647    2.00000
    4    -11.08934    2.00000
    5    -11.08933    2.00000
    6    -10.92368    2.00000
    7    -10.92368    2.00000
    8    -10.92368    2.00000
    9    -10.36282    2.00000
   10     -9.36211    2.00000
   11     -9.36210    2.00000
   12     -9.36210    2.00000
   13     -9.26031    2.00000
   14     -9.26031    2.00000
   15     -9.26031    2.00000
   16     -8.80658    2.00000
   17     -8.14708    2.00000
   18     -8.14708    2.00000
   19     -8.14708    2.00000
   20     -7.59649    2.00000
   21     -7.59648    2.00000
   22     -7.59648    2.00000
   23     -7.28613    2.00000
   24     -7.28613    2.00000
   25     -7.08869    2.00000
   26     -7.08869    2.00000
   27     -7.08869    2.00000
   28     -6.73554    2.00000
   29     -5.96082    2.00000
   30     -5.96081    2.00000
   31     -5.93827    2.00000
   32     -5.93827    2.00000
   33     -5.93827    2.00000
   34     -5.81151    2.00000
   35     -5.45342    2.00000
   36     -5.45342    2.00000
   37     -5.45341    2.00000
   38     -5.26858    2.00000
   39     -5.26858    2.00000
   40     -5.06714    2.00000
   41     -5.06714    2.00000
   42     -5.06714    2.00000
   43     -4.72290    2.00000
   44     -4.72289    2.00000
   45     -4.72289    2.00000
   46     -4.26294    1.99997
   47     -4.26294    1.99997
   48     -4.26293    1.99997
   49     -4.17738    1.99992
   50     -4.17738    1.99992
   51     -4.17738    1.99992
   52     -3.43960    1.88642
   53     -3.43960    1.88642
   54     -3.43960    1.88642
   55     -3.17120    1.06290
   56     -3.04905    0.50116
   57     -3.04905    0.50114
   58     -3.04905    0.50114
   59     -3.03980    0.46722
   60     -3.00758    0.36180
   61     -3.00758    0.36180
   62     -3.00758    0.36180
   63     -2.81316    0.06127
   64     -2.81316    0.06127
   65     -2.81316    0.06127
   66     -2.69376    0.01897
   67     -2.69375    0.01897
   68     -2.29045    0.00034
   69     -1.79399    0.00000
   70     -1.79399    0.00000
   71     -1.79399    0.00000
   72     -1.71386    0.00000

Gap: 0.122 eV
Transition (v -> c):
  (s=0, k=0, n=55, [0.00, 0.00, 0.00]) -> (s=0, k=0, n=56, [0.00, 0.00, 0.00])
Writing to myCalc_38.gpw (mode='all')

System changes: cell, numbers, positions 

Initialize ...

Al-setup:
  name: Aluminium
  id: 2e6447feaea722efcff26bf034b25f30
  Z: 13
  valence: 3
  core: 10
  charge: 0.0
  file: /usr/bin/gpaw-setups-0.9.20000/Al.LDA.gz
  compensation charges: gauss, rc=0.34, lmax=2
  cutoffs: 1.91(filt), 2.36(core),
  valence states:
                energy  radius
    3s(2.00)    -7.830   1.085
    3p(1.00)    -2.783   1.085
    *s          19.382   1.085
    *p          24.428   1.085
    *d           0.000   1.085

  Using partial waves for Al as LCAO basis

Reference energy: -342077.907982

Spin-paired calculation

Occupation numbers:
  Fermi-Dirac: width=0.1000 eV

Convergence criteria:
  Maximum total energy change: 0.0005 eV / electron
  Maximum integral of absolute density change: 0.0001 electrons
  Maximum integral of absolute eigenstate change: 4e-08 eV^2
  Maximum number of iterations: 333

Symmetries present (total): 4

  ( 1  0  0)  ( 1  0  0)  (-1  0  0)  (-1  0  0)
  ( 0  1  0)  ( 0 -1  0)  ( 0  1  0)  ( 0 -1  0)
  ( 0  0  1)  ( 0  0  1)  ( 0  0 -1)  ( 0  0 -1)

1 k-point (Gamma)
1 k-point in the irreducible part of the Brillouin zone
       k-points in crystal coordinates                weights
   0:     0.00000000    0.00000000    0.00000000          1/1

Wave functions: Uniform real-space grid
  Kinetic energy operator: 6*3+1=19 point O(h^6) finite-difference Laplacian
  ScaLapack parameters: grid=1x1, blocksize=None
  Wavefunction extrapolation:
    Improved wavefunction reuse through dual PAW basis 

Eigensolver
   Davidson(niter=2, smin=None, normalize=True) 

Densities:
  Coarse grid: 108*100*108 grid
  Fine grid: 216*200*216 grid
  Total Charge: 0.000000 

Density mixing:
  Method: separate
  Backend: pulay
  Linear mixing parameter: 0.05
  Mixing with 5 old densities
  Damping of long wave oscillations: 50 

Hamiltonian:
  XC and Coulomb potentials evaluated on a 216*200*216 grid
  Using the LDA Exchange-Correlation functional
  Interpolation: tri-quintic (5. degree polynomial)
  Poisson solver: FastPoissonSolver using
    6*3+1=19 point O(h^6) finite-difference Laplacian stencil;
    FFT axes: [0, 1, 2];
    FST axes: [].
 

Memory estimate:
  Process memory now: 2750.42 MiB
  Calculator: 2439.96 MiB
    Density: 469.77 MiB
      Arrays: 231.37 MiB
      Localized functions: 149.41 MiB
      Mixer: 88.99 MiB
    Hamiltonian: 162.32 MiB
      Arrays: 151.28 MiB
      XC: 0.00 MiB
      Poisson: 0.00 MiB
      vbar: 11.04 MiB
    Wavefunctions: 1807.87 MiB
      Arrays psit_nG: 872.09 MiB
      Eigensolver: 917.33 MiB
      Projections: 0.51 MiB
      Projectors: 17.94 MiB

Total number of cores used: 1

Number of atoms: 52
Number of atomic orbitals: 208
Number of bands in calculation: 98
Bands to converge: occupied states only
Number of valence electrons: 156

... initialized

Initializing position-dependent things.

Density initialized from atomic densities
Creating initial wave functions:
  98 bands from LCAO basis set

             .-----------------------------------------------------.  
            /|                                                     |  
           / |                                                     |  
          /  |                                                     |  
         /   |                                                     |  
        /    |                                                     |  
       /     |                                                     |  
      /      |                                                     |  
     /       |                                                     |  
    /        |                                                     |  
   /         |                                                     |  
  /          |                                                     |  
 *           |                        Al                           |  
 |           |                  Al       Al                        |  
 |           |                         Al                          |  
 |           |                   AlAl      Al                      |  
 |           |             Al     AlAl      AlAl                   |  
 |           |              AlAl      AlAl     Al                  |  
 |           |        Al     AlAl Al   AlAl                        |  
 |           |           Al        Al        Al                    |  
 |           |         Al        Al        Al                      |  
 |           |             AlAl   Al AlAl     Al                   |  
 |           |       Al     AlAl      AlAl                         |  
 |           |        AlAl      AlAl     Al                        |  
 |           |           Al      AlAl                              |  
 |           |               Al                                    |  
 |           |             Al       Al                             |  
 |           .----------------Al-----------------------------------.  
 |          /                                                     /   
 |         /                                                     /    
 |        /                                                     /     
 |       /                                                     /      
 |      /                                                     /       
 |     /                                                     /        
 |    /                                                     /         
 |   /                                                     /          
 |  /                                                     /           
 | /                                                     /            
 |/                                                     /             
 *-----------------------------------------------------*              

Positions:
   0 Al     9.980508    8.143622    6.058838    ( 0.0000,  0.0000,  0.0000)
   1 Al     8.032200   10.087490    6.054097    ( 0.0000,  0.0000,  0.0000)
   2 Al    11.924648   10.087490    6.062906    ( 0.0000,  0.0000,  0.0000)
   3 Al     9.980508   12.031359    6.058838    ( 0.0000,  0.0000,  0.0000)
   4 Al     6.058837    8.143622    9.980514    ( 0.0000,  0.0000,  0.0000)
   5 Al     7.969958    8.080980    7.969961    ( 0.0000,  0.0000,  0.0000)
   6 Al     8.036903    6.169145    9.981428    ( 0.0000,  0.0000,  0.0000)
   7 Al     9.981424    6.169145    8.036903    ( 0.0000,  0.0000,  0.0000)
   8 Al    11.994402    8.067901    7.973137    ( 0.0000,  0.0000,  0.0000)
   9 Al    11.932742    6.107645   10.006307    ( 0.0000,  0.0000,  0.0000)
  10 Al     9.980297    8.124046    9.980298    ( 0.0000,  0.0000,  0.0000)
  11 Al    13.965911    8.067901    9.944644    ( 0.0000,  0.0000,  0.0000)
  12 Al     6.054094   10.087490    8.032206    ( 0.0000,  0.0000,  0.0000)
  13 Al     6.058837   12.031358    9.980514    ( 0.0000,  0.0000,  0.0000)
  14 Al     7.969958   12.094000    7.969961    ( 0.0000,  0.0000,  0.0000)
  15 Al     8.013663   10.087490    9.979797    ( 0.0000,  0.0000,  0.0000)
  16 Al     8.036903   14.005835    9.981428    ( 0.0000,  0.0000,  0.0000)
  17 Al     9.979794   10.087490    8.013664    ( 0.0000,  0.0000,  0.0000)
  18 Al    11.994402   12.107079    7.973137    ( 0.0000,  0.0000,  0.0000)
  19 Al    12.000412   10.087490    9.938637    ( 0.0000,  0.0000,  0.0000)
  20 Al     9.980297   12.050934    9.980298    ( 0.0000,  0.0000,  0.0000)
  21 Al     9.981424   14.005836    8.036903    ( 0.0000,  0.0000,  0.0000)
  22 Al    11.932742   14.067335   10.006307    ( 0.0000,  0.0000,  0.0000)
  23 Al    13.956063   10.087490    7.982982    ( 0.0000,  0.0000,  0.0000)
  24 Al    15.876142   10.087490   10.014394    ( 0.0000,  0.0000,  0.0000)
  25 Al    13.965911   12.107079    9.944644    ( 0.0000,  0.0000,  0.0000)
  26 Al     7.973139    8.067901   11.994405    ( 0.0000,  0.0000,  0.0000)
  27 Al    10.006308    6.107645   11.932743    ( 0.0000,  0.0000,  0.0000)
  28 Al    11.958754    8.124046   11.958752    ( 0.0000,  0.0000,  0.0000)
  29 Al    11.957626    6.169145   13.902146    ( 0.0000,  0.0000,  0.0000)
  30 Al     9.944649    8.067901   13.965912    ( 0.0000,  0.0000,  0.0000)
  31 Al    11.958542    8.143622   15.880211    ( 0.0000,  0.0000,  0.0000)
  32 Al    13.902148    6.169145   11.957622    ( 0.0000,  0.0000,  0.0000)
  33 Al    15.880213    8.143622   11.958535    ( 0.0000,  0.0000,  0.0000)
  34 Al    13.969093    8.080980   13.969088    ( 0.0000,  0.0000,  0.0000)
  35 Al     6.062908   10.087490   11.924655    ( 0.0000,  0.0000,  0.0000)
  36 Al     7.973139   12.107079   11.994405    ( 0.0000,  0.0000,  0.0000)
  37 Al     7.982987   10.087490   13.956067    ( 0.0000,  0.0000,  0.0000)
  38 Al     9.938639   10.087490   12.000413    ( 0.0000,  0.0000,  0.0000)
  39 Al    11.958754   12.050934   11.958752    ( 0.0000,  0.0000,  0.0000)
  40 Al    11.959257   10.087490   13.925386    ( 0.0000,  0.0000,  0.0000)
  41 Al     9.944649   12.107079   13.965912    ( 0.0000,  0.0000,  0.0000)
  42 Al    10.006308   14.067335   11.932743    ( 0.0000,  0.0000,  0.0000)
  43 Al    11.957626   14.005836   13.902146    ( 0.0000,  0.0000,  0.0000)
  44 Al    10.014402   10.087490   15.876143    ( 0.0000,  0.0000,  0.0000)
  45 Al    11.958542   12.031359   15.880211    ( 0.0000,  0.0000,  0.0000)
  46 Al    13.925388   10.087490   11.959252    ( 0.0000,  0.0000,  0.0000)
  47 Al    15.880213   12.031358   11.958535    ( 0.0000,  0.0000,  0.0000)
  48 Al    15.884956   10.087490   13.906843    ( 0.0000,  0.0000,  0.0000)
  49 Al    13.969093   12.094000   13.969088    ( 0.0000,  0.0000,  0.0000)
  50 Al    13.902148   14.005835   11.957622    ( 0.0000,  0.0000,  0.0000)
  51 Al    13.906850   10.087490   15.884952    ( 0.0000,  0.0000,  0.0000)

Unit cell:
           periodic     x           y           z      points  spacing
  1. axis:    yes   21.939050    0.000000    0.000000   108     0.2031
  2. axis:    yes    0.000000   20.174980    0.000000   100     0.2017
  3. axis:    yes    0.000000    0.000000   21.939050   108     0.2031

  Lengths:  21.939050  20.174980  21.939050
  Angles:   90.000000  90.000000  90.000000

Effective grid spacing dv^(1/3) = 0.2027

                     log10-error:    total        iterations:
           time      wfs    density  energy       fermi  poisson
iter:   1  21:46:34  +1.14   +inf  -188.240167    3      1      
iter:   2  21:47:11  +0.18  -0.83  -187.367181    3      1      
iter:   3  21:47:50  +0.51  -0.84  -183.965215    32     1      
iter:   4  21:48:26  -0.06  -0.97  -186.420254    36     1      
iter:   5  21:49:01  +0.01  -0.89  -184.949194    35     1      
iter:   6  21:49:37  +0.65  -1.12  -197.353278    36     1      
iter:   7  21:50:12  -0.24  -0.78  -189.760472    35     1      
iter:   8  21:50:48  -0.81  -0.87  -190.800381    3      1      
iter:   9  21:51:23  +0.19  -0.87  -185.106378    36     1      
iter:  10  21:51:59  +0.04  -1.10  -183.782529    4      1      
iter:  11  21:52:34  +0.09  -1.27  -183.232263    35     1      
iter:  12  21:53:10  -0.48  -1.59  -183.192433    4      1      
iter:  13  21:53:46  -1.28  -1.95  -183.179838    3      1      
iter:  14  21:54:21  -1.59  -2.04  -183.161435    2      1      
iter:  15  21:54:56  -1.66  -2.17  -183.170284    3      1      
iter:  16  21:55:32  -2.39  -2.41  -183.171000    3      1      
iter:  17  21:56:08  -2.46  -2.49  -183.168420    3      1      
iter:  18  21:56:43  -3.22  -2.60  -183.167615    3      1      
iter:  19  21:57:19  -3.28  -2.67  -183.164499    2      1      
iter:  20  21:57:54  -3.53  -2.87  -183.165214    2      1      
iter:  21  21:58:30  -3.43  -2.99  -183.165738    3      1      
iter:  22  21:59:05  -4.32  -3.09  -183.165607    2      1      
iter:  23  21:59:40  -4.01  -3.12  -183.165831    3      1      
iter:  24  22:00:17  -3.84  -3.24  -183.166365    3      1      
iter:  25  22:00:52  -4.89  -3.35  -183.165999    2      1      
iter:  26  22:01:28  -4.21  -3.52  -183.165632    2      1      
iter:  27  22:02:03  -4.30  -3.53  -183.165936    3      1      
iter:  28  22:02:39  -5.30  -3.73  -183.165844    2      1      
iter:  29  22:03:14  -5.00  -3.88  -183.165716    2      1      
iter:  30  22:03:49  -5.16  -3.99  -183.165847    2      1      
iter:  31  22:04:25  -5.66  -4.11  -183.165760    2      1      
iter:  32  22:05:01  -5.27  -4.27  -183.165729    2      1      
iter:  33  22:05:36  -5.63  -4.07  -183.165846    2      1      
iter:  34  22:06:12  -5.75  -4.31  -183.165785    2      1      
iter:  35  22:06:47  -5.67  -4.61  -183.165775    2      1      
iter:  36  22:07:23  -6.24  -4.33  -183.165824    2      1      
iter:  37  22:07:59  -7.45  -4.83  -183.165809    2      1      

Converged after 37 iterations.

Dipole moment: (0.000084, 0.000022, 0.000002) |e|*Ang

Energy contributions relative to reference atoms: (reference = -342077.907982)

Kinetic:       +202.014945
Potential:     -130.852949
External:        +0.000000
XC:            -253.528212
Entropy (-ST):   -1.234228
Local:           -0.182479
--------------------------
Free energy:   -183.782923
Extrapolated:  -183.165809

Fermi level: -3.28814

 Band  Eigenvalues  Occupancy
    0    -13.71124    2.00000
    1    -12.98509    2.00000
    2    -12.60799    2.00000
    3    -12.59330    2.00000
    4    -11.83983    2.00000
    5    -11.78811    2.00000
    6    -11.69105    2.00000
    7    -11.28043    2.00000
    8    -11.06154    2.00000
    9    -10.65649    2.00000
   10    -10.54960    2.00000
   11    -10.51655    2.00000
   12    -10.30210    2.00000
   13    -10.25752    2.00000
   14    -10.17511    2.00000
   15     -9.62672    2.00000
   16     -9.58725    2.00000
   17     -9.32327    2.00000
   18     -9.08500    2.00000
   19     -9.01051    2.00000
   20     -8.80560    2.00000
   21     -8.78459    2.00000
   22     -8.73076    2.00000
   23     -8.54360    2.00000
   24     -8.49036    2.00000
   25     -8.47992    2.00000
   26     -8.21810    2.00000
   27     -7.83608    2.00000
   28     -7.67856    2.00000
   29     -7.49236    2.00000
   30     -7.44127    2.00000
   31     -7.41639    2.00000
   32     -7.37076    2.00000
   33     -7.32279    2.00000
   34     -7.24035    2.00000
   35     -7.22451    2.00000
   36     -6.81622    2.00000
   37     -6.81181    2.00000
   38     -6.71526    2.00000
   39     -6.47553    2.00000
   40     -6.37879    2.00000
   41     -6.32747    2.00000
   42     -6.12109    2.00000
   43     -6.08047    2.00000
   44     -5.95328    2.00000
   45     -5.80219    2.00000
   46     -5.73783    2.00000
   47     -5.62186    2.00000
   48     -5.57083    2.00000
   49     -5.43468    2.00000
   50     -5.42519    2.00000
   51     -5.38281    2.00000
   52     -5.29003    2.00000
   53     -5.25954    2.00000
   54     -5.22796    2.00000
   55     -5.17588    2.00000
   56     -5.10365    2.00000
   57     -4.96335    2.00000
   58     -4.94322    2.00000
   59     -4.75612    2.00000
   60     -4.57271    1.99999
   61     -4.55993    1.99999
   62     -4.50110    1.99999
   63     -4.49982    1.99999
   64     -4.40374    1.99997
   65     -4.28149    1.99990
   66     -3.95747    1.99752
   67     -3.94010    1.99706
   68     -3.87886    1.99458
   69     -3.86759    1.99393
   70     -3.71161    1.97145
   71     -3.64505    1.94519
   72     -3.57812    1.89568
   73     -3.51040    1.80453
   74     -3.41821    1.57191
   75     -3.41050    1.54539
   76     -3.30562    1.08720
   77     -3.30501    1.08415
   78     -3.29878    1.05316
   79     -3.24310    0.77856
   80     -3.21093    0.63206
   81     -3.16465    0.45066
   82     -3.02273    0.13147
   83     -2.86779    0.02945
   84     -2.79644    0.01454
   85     -2.76873    0.01104
   86     -2.74757    0.00894
   87     -2.49773    0.00074
   88     -2.46517    0.00053
   89     -2.37145    0.00021
   90     -2.31713    0.00012
   91     -2.20739    0.00004
   92     -2.10905    0.00002
   93     -2.07188    0.00001
   94     -2.05916    0.00001
   95     -2.03559    0.00001
   96     -2.00736    0.00001
   97     -2.00136    0.00001

Gap: 0.056 eV
Transition (v -> c):
  (s=0, k=0, n=78, [0.00, 0.00, 0.00]) -> (s=0, k=0, n=79, [0.00, 0.00, 0.00])
Writing to myCalc_52.gpw (mode='all')

System changes: cell, numbers, positions 

Initialize ...

Al-setup:
  name: Aluminium
  id: 2e6447feaea722efcff26bf034b25f30
  Z: 13
  valence: 3
  core: 10
  charge: 0.0
  file: /usr/bin/gpaw-setups-0.9.20000/Al.LDA.gz
  compensation charges: gauss, rc=0.34, lmax=2
  cutoffs: 1.91(filt), 2.36(core),
  valence states:
                energy  radius
    3s(2.00)    -7.830   1.085
    3p(1.00)    -2.783   1.085
    *s          19.382   1.085
    *p          24.428   1.085
    *d           0.000   1.085

  Using partial waves for Al as LCAO basis

Reference energy: -467067.912822

Spin-paired calculation

Occupation numbers:
  Fermi-Dirac: width=0.1000 eV

Convergence criteria:
  Maximum total energy change: 0.0005 eV / electron
  Maximum integral of absolute density change: 0.0001 electrons
  Maximum integral of absolute eigenstate change: 4e-08 eV^2
  Maximum number of iterations: 333

Symmetries present (total): 4

  ( 1  0  0)  ( 1  0  0)  (-1  0  0)  (-1  0  0)
  ( 0  1  0)  ( 0 -1  0)  ( 0  1  0)  ( 0 -1  0)
  ( 0  0  1)  ( 0  0  1)  ( 0  0  1)  ( 0  0  1)

1 k-point (Gamma)
1 k-point in the irreducible part of the Brillouin zone
       k-points in crystal coordinates                weights
   0:     0.00000000    0.00000000    0.00000000          1/1

Wave functions: Uniform real-space grid
  Kinetic energy operator: 6*3+1=19 point O(h^6) finite-difference Laplacian
  ScaLapack parameters: grid=1x1, blocksize=None
  Wavefunction extrapolation:
    Improved wavefunction reuse through dual PAW basis 

Eigensolver
   Davidson(niter=2, smin=None, normalize=True) 

Densities:
  Coarse grid: 120*104*120 grid
  Fine grid: 240*208*240 grid
  Total Charge: 0.000000 

Density mixing:
  Method: separate
  Backend: pulay
  Linear mixing parameter: 0.05
  Mixing with 5 old densities
  Damping of long wave oscillations: 50 

Hamiltonian:
  XC and Coulomb potentials evaluated on a 240*208*240 grid
  Using the LDA Exchange-Correlation functional
  Interpolation: tri-quintic (5. degree polynomial)
  Poisson solver: FastPoissonSolver using
    6*3+1=19 point O(h^6) finite-difference Laplacian stencil;
    FFT axes: [0, 1, 2];
    FST axes: [].
 

Memory estimate:
  Process memory now: 2772.13 MiB
  Calculator: 3940.83 MiB
    Density: 628.64 MiB
      Arrays: 297.07 MiB
      Localized functions: 217.31 MiB
      Mixer: 114.26 MiB
    Hamiltonian: 210.30 MiB
      Arrays: 194.24 MiB
      XC: 0.00 MiB
      Poisson: 0.00 MiB
      vbar: 16.06 MiB
    Wavefunctions: 3101.89 MiB
      Arrays psit_nG: 1508.20 MiB
      Eigensolver: 1566.67 MiB
      Projections: 0.93 MiB
      Projectors: 26.09 MiB

Total number of cores used: 1

Number of atoms: 71
Number of atomic orbitals: 284
Number of bands in calculation: 132
Bands to converge: occupied states only
Number of valence electrons: 213

... initialized

Initializing position-dependent things.

Density initialized from atomic densities
Creating initial wave functions:
  132 bands from LCAO basis set

              .----------------------------------------------------------.  
             /|                                                          |  
            / |                                                          |  
           /  |                                                          |  
          /   |                                                          |  
         /    |                                                          |  
        /     |                                                          |  
       /      |                                                          |  
      /       |                                                          |  
     /        |                                                          |  
    /         |                                                          |  
   /          |                                                          |  
  /           |                                                          |  
 *            |                       Al                                 |  
 |            |                 Al      AlAl                             |  
 |            |                  Al Al     Al                            |  
 |            |            Al      AlAl     Al Al                        |  
 |            |             Al Al     Al Al     Al                       |  
 |            |               Al        Al       Al                      |  
 |            |       Al        AlAl      Al        Al                   |  
 |            |         AlAl     Al Al     Al Al     Al                  |  
 |            |            Al Al   AlAlAl   Al Al                        |  
 |            |      Al     Al Al     Al Al     AlAl                     |  
 |            |       Al        Al      AlAl        Al                   |  
 |            |          Al       Al        Al                           |  
 |            |           Al     Al Al     Al Al                         |  
 |            |            Al Al     AlAl      Al                        |  
 |            |                Al     Al Al                              |  
 |            |                 AlAl      Al                             |  
 |            .---------------------Al-----------------------------------.  
 |           /                                                          /   
 |          /                                                          /    
 |         /                                                          /     
 |        /                                                          /      
 |       /                                                          /       
 |      /                                                          /        
 |     /                                                          /         
 |    /                                                          /          
 |   /                                                          /           
 |  /                                                          /            
 | /                                                          /             
 |/                                                          /              
 *----------------------------------------------------------*               

Positions:
   0 Al    11.962910    8.275255    6.079178    ( 0.0000,  0.0000,  0.0000)
   1 Al    10.022392   10.223390    6.080782    ( 0.0000,  0.0000,  0.0000)
   2 Al    13.903428   10.223390    6.080782    ( 0.0000,  0.0000,  0.0000)
   3 Al    11.962910   12.171525    6.079178    ( 0.0000,  0.0000,  0.0000)
   4 Al     9.944461    8.190958    7.978027    ( 0.0000,  0.0000,  0.0000)
   5 Al    10.020337    6.228148   10.020292    ( 0.0000,  0.0000,  0.0000)
   6 Al     7.978071    8.190959    9.944415    ( 0.0000,  0.0000,  0.0000)
   7 Al    11.962910    6.287676    8.040771    ( 0.0000,  0.0000,  0.0000)
   8 Al    13.981360    8.190958    7.978027    ( 0.0000,  0.0000,  0.0000)
   9 Al    13.905484    6.228148   10.020292    ( 0.0000,  0.0000,  0.0000)
  10 Al    11.962910    8.244548    9.971443    ( 0.0000,  0.0000,  0.0000)
  11 Al    15.947749    8.190959    9.944415    ( 0.0000,  0.0000,  0.0000)
  12 Al     6.080825   10.223390   10.022344    ( 0.0000,  0.0000,  0.0000)
  13 Al     7.984650   10.223390    7.984603    ( 0.0000,  0.0000,  0.0000)
  14 Al     9.944461   12.255822    7.978027    ( 0.0000,  0.0000,  0.0000)
  15 Al     9.930526   10.223390    9.930479    ( 0.0000,  0.0000,  0.0000)
  16 Al     7.978071   12.255821    9.944415    ( 0.0000,  0.0000,  0.0000)
  17 Al    10.020337   14.218632   10.020292    ( 0.0000,  0.0000,  0.0000)
  18 Al    11.962910   10.223390    8.031392    ( 0.0000,  0.0000,  0.0000)
  19 Al    13.981360   12.255822    7.978027    ( 0.0000,  0.0000,  0.0000)
  20 Al    15.941171   10.223390    7.984603    ( 0.0000,  0.0000,  0.0000)
  21 Al    11.962910   14.159104    8.040771    ( 0.0000,  0.0000,  0.0000)
  22 Al    13.995295   10.223390    9.930479    ( 0.0000,  0.0000,  0.0000)
  23 Al    11.962910   12.202232    9.971443    ( 0.0000,  0.0000,  0.0000)
  24 Al    15.947749   12.255821    9.944415    ( 0.0000,  0.0000,  0.0000)
  25 Al    13.905484   14.218632   10.020292    ( 0.0000,  0.0000,  0.0000)
  26 Al    17.844995   10.223390   10.022344    ( 0.0000,  0.0000,  0.0000)
  27 Al     6.079220    8.275257   11.962863    ( 0.0000,  0.0000,  0.0000)
  28 Al     8.040813    6.287679   11.962864    ( 0.0000,  0.0000,  0.0000)
  29 Al     9.971489    8.244549   11.962863    ( 0.0000,  0.0000,  0.0000)
  30 Al    10.020338    6.228149   13.905434    ( 0.0000,  0.0000,  0.0000)
  31 Al     7.978072    8.190960   13.981311    ( 0.0000,  0.0000,  0.0000)
  32 Al    11.962910    6.199943   11.962862    ( 0.0000,  0.0000,  0.0000)
  33 Al    13.954332    8.244549   11.962863    ( 0.0000,  0.0000,  0.0000)
  34 Al    13.905482    6.228149   13.905434    ( 0.0000,  0.0000,  0.0000)
  35 Al    11.962910    8.244548   13.954283    ( 0.0000,  0.0000,  0.0000)
  36 Al    15.885008    6.287679   11.962864    ( 0.0000,  0.0000,  0.0000)
  37 Al    15.947748    8.190960   13.981311    ( 0.0000,  0.0000,  0.0000)
  38 Al    17.846600    8.275257   11.962863    ( 0.0000,  0.0000,  0.0000)
  39 Al     6.079220   12.171523   11.962863    ( 0.0000,  0.0000,  0.0000)
  40 Al     6.080825   10.223390   13.903383    ( 0.0000,  0.0000,  0.0000)
  41 Al     8.031436   10.223390   11.962863    ( 0.0000,  0.0000,  0.0000)
  42 Al     9.971489   12.202231   11.962863    ( 0.0000,  0.0000,  0.0000)
  43 Al     9.930526   10.223390   13.995247    ( 0.0000,  0.0000,  0.0000)
  44 Al     7.978072   12.255821   13.981311    ( 0.0000,  0.0000,  0.0000)
  45 Al     8.040813   14.159101   11.962864    ( 0.0000,  0.0000,  0.0000)
  46 Al    10.020338   14.218632   13.905434    ( 0.0000,  0.0000,  0.0000)
  47 Al    11.962910   10.223390   11.962862    ( 0.0000,  0.0000,  0.0000)
  48 Al    13.954332   12.202231   11.962863    ( 0.0000,  0.0000,  0.0000)
  49 Al    13.995294   10.223390   13.995247    ( 0.0000,  0.0000,  0.0000)
  50 Al    11.962910   12.202232   13.954283    ( 0.0000,  0.0000,  0.0000)
  51 Al    15.894384   10.223390   11.962863    ( 0.0000,  0.0000,  0.0000)
  52 Al    15.947748   12.255821   13.981311    ( 0.0000,  0.0000,  0.0000)
  53 Al    11.962910   14.246837   11.962862    ( 0.0000,  0.0000,  0.0000)
  54 Al    13.905482   14.218632   13.905434    ( 0.0000,  0.0000,  0.0000)
  55 Al    15.885008   14.159101   11.962864    ( 0.0000,  0.0000,  0.0000)
  56 Al    17.846600   12.171523   11.962863    ( 0.0000,  0.0000,  0.0000)
  57 Al    17.844995   10.223390   13.903383    ( 0.0000,  0.0000,  0.0000)
  58 Al     9.944461    8.190959   15.947700    ( 0.0000,  0.0000,  0.0000)
  59 Al    11.962910    6.287679   15.884959    ( 0.0000,  0.0000,  0.0000)
  60 Al    13.981359    8.190959   15.947700    ( 0.0000,  0.0000,  0.0000)
  61 Al    11.962910    8.275258   17.846551    ( 0.0000,  0.0000,  0.0000)
  62 Al     7.984649   10.223390   15.941122    ( 0.0000,  0.0000,  0.0000)
  63 Al     9.944461   12.255821   15.947700    ( 0.0000,  0.0000,  0.0000)
  64 Al    10.022389   10.223390   17.844945    ( 0.0000,  0.0000,  0.0000)
  65 Al    11.962910   10.223390   15.894335    ( 0.0000,  0.0000,  0.0000)
  66 Al    13.981359   12.255821   15.947700    ( 0.0000,  0.0000,  0.0000)
  67 Al    13.903431   10.223390   17.844945    ( 0.0000,  0.0000,  0.0000)
  68 Al    11.962910   12.171522   17.846551    ( 0.0000,  0.0000,  0.0000)
  69 Al    15.941171   10.223390   15.941122    ( 0.0000,  0.0000,  0.0000)
  70 Al    11.962910   14.159101   15.884959    ( 0.0000,  0.0000,  0.0000)

Unit cell:
           periodic     x           y           z      points  spacing
  1. axis:    yes   23.925820    0.000000    0.000000   120     0.1994
  2. axis:    yes    0.000000   20.446780    0.000000   104     0.1966
  3. axis:    yes    0.000000    0.000000   23.925770   120     0.1994

  Lengths:  23.925820  20.446780  23.925770
  Angles:   90.000000  90.000000  90.000000

Effective grid spacing dv^(1/3) = 0.1985

                     log10-error:    total        iterations:
           time      wfs    density  energy       fermi  poisson
iter:   1  22:10:02  +1.15   +inf  -261.885686    3      1      
iter:   2  22:11:18  +0.19  -0.84  -260.562153    4      1      
iter:   3  22:12:27  +0.52  -0.85  -256.949824    37     1      
iter:   4  22:13:37  -0.01  -0.96  -259.862835    35     1      
iter:   5  22:14:42  +0.40  -0.91  -258.815737    37     1      
iter:   6  22:15:48  +0.69  -1.20  -263.638280    36     1      
iter:   7  22:16:54  -0.51  -0.99  -262.059766    4      1      
iter:   8  22:18:05  -0.28  -0.99  -258.203635    4      1      
iter:   9  22:19:15  -0.30  -1.15  -257.155104    4      1      
iter:  10  22:20:17  -1.39  -1.24  -258.149521    4      1      
iter:  11  22:21:21  -1.07  -1.19  -257.627839    4      1      
iter:  12  22:22:28  -0.32  -1.23  -256.442922    37     1      
iter:  13  22:23:41  -0.69  -1.59  -255.762609    4      1      
iter:  14  22:24:46  -0.05  -1.93  -256.241403    5      1      
iter:  15  22:25:48  -1.44  -1.66  -255.932557    4      1      
iter:  16  22:26:53  -1.43  -1.82  -255.821522    4      1      
iter:  17  22:27:54  -2.26  -2.06  -255.840284    3      1      
iter:  18  22:28:59  -1.66  -2.10  -255.810593    4      1      
iter:  19  22:30:01  -2.15  -2.46  -255.809894    3      1      
iter:  20  22:31:08  -2.11  -2.58  -255.812935    3      1      
iter:  21  22:32:13  -3.38  -2.67  -255.811702    3      1      
iter:  22  22:33:23  -2.50  -2.70  -255.813453    3      1      
iter:  23  22:34:31  -3.13  -2.54  -255.807888    3      1      
iter:  24  22:35:38  -2.51  -2.73  -255.808769    3      1      
iter:  25  22:36:46  -2.93  -3.01  -255.811418    2      1      
iter:  26  22:37:50  -3.72  -3.03  -255.809625    3      1      
iter:  27  22:39:05  -3.39  -3.32  -255.809375    3      1      
iter:  28  22:40:18  -4.07  -3.28  -255.809868    3      1      
iter:  29  22:41:29  -4.93  -3.54  -255.809478    2      1      
iter:  30  22:42:38  -4.97  -3.61  -255.809330    2      1      
iter:  31  22:43:47  -4.92  -3.65  -255.809464    2      1      
iter:  32  22:44:55  -4.81  -3.69  -255.809227    3      1      
iter:  33  22:46:00  -5.97  -3.78  -255.809315    2      1      
iter:  34  22:47:09  -4.87  -3.83  -255.809575    2      1      
iter:  35  22:48:22  -4.57  -3.74  -255.809243    3      1      
iter:  36  22:49:34  -5.98  -4.01  -255.809348    2      1      
iter:  37  22:50:40  -5.55  -4.17  -255.809443    2      1      
iter:  38  22:51:51  -5.17  -4.15  -255.809281    2      1      
iter:  39  22:52:57  -6.35  -4.15  -255.809291    2      1      
iter:  40  22:54:10  -6.04  -4.19  -255.809344    2      1      
iter:  41  22:55:20  -6.60  -4.48  -255.809345    2      1      
iter:  42  22:56:29  -6.08  -4.65  -255.809372    2      1      
iter:  43  22:57:38  -7.37  -4.82  -255.809353    2      1      
iter:  44  22:58:52  -7.25  -5.22  -255.809349    2      1      
iter:  45  22:59:59  -7.83  -5.26  -255.809360    2      1      

Converged after 45 iterations.

Dipole moment: (0.000025, 0.000022, 0.000025) |e|*Ang

Energy contributions relative to reference atoms: (reference = -467067.912822)

Kinetic:       +281.051166
Potential:     -181.003963
External:        +0.000000
XC:            -355.028992
Entropy (-ST):   -1.133541
Local:           -0.260801
--------------------------
Free energy:   -256.376131
Extrapolated:  -255.809360

Fermi level: -3.17682

 Band  Eigenvalues  Occupancy
    0    -13.66561    2.00000
    1    -13.02419    2.00000
    2    -13.02419    2.00000
    3    -12.61891    2.00000
    4    -12.33039    2.00000
    5    -11.93956    2.00000
    6    -11.87155    2.00000
    7    -11.77495    2.00000
    8    -11.77495    2.00000
    9    -11.13756    2.00000
   10    -11.13756    2.00000
   11    -11.00457    2.00000
   12    -10.95144    2.00000
   13    -10.69243    2.00000
   14    -10.69242    2.00000
   15    -10.39676    2.00000
   16    -10.32601    2.00000
   17     -9.89482    2.00000
   18     -9.88904    2.00000
   19     -9.88904    2.00000
   20     -9.87753    2.00000
   21     -9.70766    2.00000
   22     -9.53971    2.00000
   23     -9.53971    2.00000
   24     -9.20899    2.00000
   25     -9.15353    2.00000
   26     -8.99858    2.00000
   27     -8.87413    2.00000
   28     -8.87217    2.00000
   29     -8.87217    2.00000
   30     -8.51733    2.00000
   31     -8.51733    2.00000
   32     -8.15308    2.00000
   33     -8.14297    2.00000
   34     -8.14295    2.00000
   35     -8.10331    2.00000
   36     -8.10331    2.00000
   37     -8.07194    2.00000
   38     -7.81547    2.00000
   39     -7.79083    2.00000
   40     -7.79083    2.00000
   41     -7.41154    2.00000
   42     -7.41154    2.00000
   43     -7.34708    2.00000
   44     -7.29192    2.00000
   45     -7.13642    2.00000
   46     -7.09782    2.00000
   47     -7.09782    2.00000
   48     -6.86669    2.00000
   49     -6.75201    2.00000
   50     -6.62911    2.00000
   51     -6.62910    2.00000
   52     -6.53625    2.00000
   53     -6.51541    2.00000
   54     -6.29400    2.00000
   55     -6.28488    2.00000
   56     -6.28488    2.00000
   57     -6.22313    2.00000
   58     -6.22313    2.00000
   59     -6.09328    2.00000
   60     -6.02286    2.00000
   61     -5.97291    2.00000
   62     -5.68778    2.00000
   63     -5.56110    2.00000
   64     -5.56110    2.00000
   65     -5.52467    2.00000
   66     -5.51494    2.00000
   67     -5.51493    2.00000
   68     -5.48771    2.00000
   69     -5.37116    2.00000
   70     -5.37116    2.00000
   71     -5.28955    2.00000
   72     -5.21099    2.00000
   73     -5.12337    2.00000
   74     -5.12337    2.00000
   75     -4.92488    2.00000
   76     -4.86311    2.00000
   77     -4.77264    2.00000
   78     -4.77263    2.00000
   79     -4.68243    2.00000
   80     -4.64374    2.00000
   81     -4.55577    2.00000
   82     -4.55048    2.00000
   83     -4.50141    2.00000
   84     -4.46510    1.99999
   85     -4.40568    1.99999
   86     -4.40568    1.99999
   87     -4.22727    1.99995
   88     -4.10002    1.99980
   89     -4.10002    1.99980
   90     -4.04758    1.99967
   91     -3.83848    1.99733
   92     -3.83848    1.99733
   93     -3.69769    1.98912
   94     -3.69769    1.98912
   95     -3.67367    1.98619
   96     -3.58351    1.96632
   97     -3.55165    1.95397
   98     -3.55165    1.95397
   99     -3.46863    1.89747
  100     -3.46372    1.89258
  101     -3.42351    1.84358
  102     -3.42351    1.84358
  103     -3.36220    1.72916
  104     -3.26765    1.42532
  105     -3.26765    1.42530
  106     -3.22404    1.23181
  107     -3.20799    1.15463
  108     -2.99702    0.28419
  109     -2.91917    0.14134
  110     -2.88755    0.10503
  111     -2.85654    0.07812
  112     -2.85654    0.07812
  113     -2.67537    0.01319
  114     -2.61070    0.00693
  115     -2.61070    0.00693
  116     -2.57522    0.00487
  117     -2.43449    0.00119
  118     -2.43448    0.00119
  119     -2.40024    0.00085
  120     -2.40024    0.00085
  121     -2.36044    0.00057
  122     -2.28718    0.00027
  123     -2.25304    0.00019
  124     -2.20485    0.00012
  125     -2.05040    0.00003
  126     -1.92683    0.00001
  127     -1.92683    0.00001
  128     -1.90029    0.00001
  129     -1.84748    0.00000
  130     -1.84748    0.00000
  131     -1.78582    0.00000

Gap: 0.211 eV
Transition (v -> c):
  (s=0, k=0, n=107, [0.00, 0.00, 0.00]) -> (s=0, k=0, n=108, [0.00, 0.00, 0.00])
