
  ___ ___ ___ _ _ _  
 |   |   |_  | | | | 
 | | | | | . | | | | 
 |__ |  _|___|_____|  19.8.1
 |___|_|             

User:   holmins@hebbe30-10
Date:   Thu Feb 27 12:57:26 2020
Arch:   x86_64
Pid:    18299
Python: 3.7.2
gpaw:   /apps/Hebbe7/software/MPI/intel/2019.1.144-GCC-8.2.0-2.31.1/impi/2018.4.274/GPAW/19.8.1-Python-3.7.2/lib/python3.7/site-packages/gpaw
_gpaw:  /apps/Hebbe7/software/MPI/intel/2019.1.144-GCC-8.2.0-2.31.1/impi/2018.4.274/GPAW/19.8.1-Python-3.7.2/bin/
        gpaw-python
ase:    /apps/Hebbe7/software/MPI/intel/2019.1.144-GCC-8.2.0-2.31.1/impi/2018.4.274/ASE/3.18.0-Python-3.7.2/lib/python3.7/site-packages/ase (version 3.18.0)
numpy:  /apps/Hebbe7/software/MPI/intel/2019.1.144-GCC-8.2.0-2.31.1/impi/2018.4.274/SciPy-bundle/2019.03/lib/python3.7/site-packages/numpy (version 1.16.2)
scipy:  /apps/Hebbe7/software/MPI/intel/2019.1.144-GCC-8.2.0-2.31.1/impi/2018.4.274/SciPy-bundle/2019.03/lib/python3.7/site-packages/scipy (version 1.2.1)
libxc:  4.3.4
units:  Angstrom and eV
cores:  4

Reading from Na_gs_0bands.gpw
Read dipole, energy, free_energy
Reading input parameters:
  h: 0.3
  nbands: 0
  setups: {Na: 1}

Initialize ...

Na-setup:
  name: Sodium
  id: fa5c50181d04022fed15b2593599c257
  Z: 11
  valence: 1
  core: 10
  charge: 0.0
  file: /apps/Common/Core/GPAW-setups/0.9.20000/Na.1.LDA.gz
  compensation charges: gauss, rc=0.43, lmax=2
  cutoffs: 2.36(filt), 3.60(core),
  valence states:
                energy  radius
    3s(1.00)    -2.819   1.349
    3p(0.00)    -0.774   1.349
    *s          24.392   1.349

  Using partial waves for Na as LCAO basis

Reference energy: -35189.668405

Spin-paired calculation

Occupation numbers:
  Fermi-Dirac: width=0.0000 eV

Convergence criteria:
  Maximum total energy change: 0.0005 eV / electron
  Maximum integral of absolute density change: 0.0001 electrons
  Maximum integral of absolute eigenstate change: 4e-08 eV^2
  Maximum number of iterations: 333

Symmetries present (total): 1

  ( 1  0  0)
  ( 0  1  0)
  ( 0  0  1)

1 k-point (Gamma)
1 k-point in the irreducible part of the Brillouin zone
       k-points in crystal coordinates                weights
   0:     0.00000000    0.00000000    0.00000000          1/1

Wave functions: Uniform real-space grid
  Kinetic energy operator: 6*3+1=19 point O(h^6) finite-difference Laplacian
  ScaLapack parameters: grid=1x1, blocksize=None
  Wavefunction extrapolation:
    Wavefunctions kept unchanged if atoms move 

Eigensolver
   Davidson(niter=2, smin=None, normalize=True) 

Densities:
  Coarse grid: 72*64*64 grid
  Fine grid: 144*128*128 grid
  Total Charge: 0.000000 

No density mixing

Hamiltonian:
  XC and Coulomb potentials evaluated on a 144*128*128 grid
  Using the LDA Exchange-Correlation functional
  Interpolation: tri-quintic (5. degree polynomial)
  Poisson solver: FastPoissonSolver using
    6*3+1=19 point O(h^6) finite-difference Laplacian stencil;
    FFT axes: [];
    FST axes: [1, 2, 0].
 

Memory estimate:
  Process memory now: 139.34 MiB
  Calculator: 40.52 MiB
    Density: 17.38 MiB
      Arrays: 14.05 MiB
      Localized functions: 3.33 MiB
      Mixer: 0.00 MiB
    Hamiltonian: 9.43 MiB
      Arrays: 9.19 MiB
      XC: 0.00 MiB
      Poisson: 0.00 MiB
      vbar: 0.24 MiB
    Wavefunctions: 13.71 MiB
      Arrays psit_nG: 4.17 MiB
      Eigensolver: 9.39 MiB
      Projections: 0.00 MiB
      Projectors: 0.15 MiB

Total number of cores used: 4
Domain decomposition: 2 x 1 x 2

Number of atoms: 8
Number of atomic orbitals: 32
Number of bands in calculation: 4
Bands to converge: occupied states only
Number of valence electrons: 8

... initialized

Initializing position-dependent things.

Density initialized from wave functions
             .---------------------------------------------------.  
            /|                                                   |  
           / |                                                   |  
          /  |                                                   |  
         /   |                                                   |  
        /    |                                                   |  
       /     |                                                   |  
      /      |                                                   |  
     /       |                                                   |  
    /        |                                                   |  
   /         |                                                   |  
  /          |                                                   |  
 *           |                                                   |  
 |           |                                                   |  
 |           |                                                   |  
 |           |                Na      Na                         |  
 |           |                                                   |  
 |           |                 Na                                |  
 |           |                        Na                         |  
 |           |            Na     Na                              |  
 |           |                          Na                       |  
 |           |                   Na                              |  
 |           |                                                   |  
 |           |                                                   |  
 |           .---------------------------------------------------.  
 |          /                                                   /   
 |         /                                                   /    
 |        /                                                   /     
 |       /                                                   /      
 |      /                                                   /       
 |     /                                                   /        
 |    /                                                   /         
 |   /                                                   /          
 |  /                                                   /           
 | /                                                   /            
 |/                                                   /             
 *---------------------------------------------------*              

Positions:
   0 Na    10.922192    8.238463    8.000000    ( 0.0000,  0.0000,  0.0000)
   1 Na    12.257661   11.157996   11.382019    ( 0.0000,  0.0000,  0.0000)
   2 Na    10.216336    8.203886   11.527427    ( 0.0000,  0.0000,  0.0000)
   3 Na    13.296094   10.707686    8.133404    ( 0.0000,  0.0000,  0.0000)
   4 Na    10.224938   11.735947    8.480750    ( 0.0000,  0.0000,  0.0000)
   5 Na     8.000000    9.197826    9.099813    ( 0.0000,  0.0000,  0.0000)
   6 Na    13.288608    8.000000   10.468102    ( 0.0000,  0.0000,  0.0000)
   7 Na     9.008393   11.414603   11.674558    ( 0.0000,  0.0000,  0.0000)



------------------------------------------
  Time-propagation TDDFT                  
------------------------------------------

Charge epsilon:  1e-05
Solver:  CSCG
Preconditioner:  None
Propagator:  SICN
States per processor =  4
Delta kick =  [1e-05, 0.0, 0.0]

Starting time:    0.00 as
Time step:       30.00 as

                        Simulation     Total         log10     Iterations:
             Time          time        Energy (eV)   Norm      Propagator
iter:   0  12:57:29        0.00       -7.937914     -14.5          0
iter:  10  12:58:01      300.00       -7.937915     -14.9         63
iter:  20  12:58:31      600.00       -7.937914     -14.8         63
iter:  30  12:59:00      900.00       -7.937914     -14.6         55
iter:  40  12:59:29     1200.00       -7.937914     -14.4         56
iter:  50  12:59:57     1500.00       -7.937914     -15.4         56
iter:  60  13:00:26     1800.00       -7.937914     -15.2         56
iter:  70  13:00:55     2100.00       -7.937914     -14.3         56
iter:  80  13:01:25     2400.00       -7.937914     -15.2         63
iter:  90  13:01:57     2700.00       -7.937914     -15.2         60
Writing to na_td.gpw (mode='all')

Wrote restart file.
100  iterations done. Current time is  2999.9999999999986  as.
iter: 100  13:02:27     3000.00       -7.937914     -14.3         56
iter: 110  13:02:58     3300.00       -7.937914     -14.5         64
iter: 120  13:03:29     3600.00       -7.937914     -14.5         55
iter: 130  13:04:00     3900.00       -7.937914     -15.7         63
iter: 140  13:04:31     4200.00       -7.937914     -14.6         62
iter: 150  13:05:00     4500.00       -7.937914     -15.3         56
iter: 160  13:05:29     4800.00       -7.937914     -14.6         57
iter: 170  13:06:00     5100.00       -7.937914     -14.5         60
iter: 180  13:06:29     5400.00       -7.937914     -14.6         55
iter: 190  13:06:59     5700.00       -7.937914     -14.4         63
Writing to na_td.gpw (mode='all')

Wrote restart file.
200  iterations done. Current time is  6000.00000000003  as.
iter: 200  13:07:29     6000.00       -7.937914     -14.8         56
iter: 210  13:07:58     6300.00       -7.937914     -14.6         56
iter: 220  13:08:29     6600.00       -7.937914     -14.2         63
iter: 230  13:08:59     6900.00       -7.937914     -15.1         56
iter: 240  13:09:29     7200.00       -7.937914     -15.0         63
iter: 250  13:09:59     7500.00       -7.937914     -15.1         56
iter: 260  13:10:28     7800.00       -7.937914     -14.6         55
iter: 270  13:10:58     8100.00       -7.937914     -14.2         56
iter: 280  13:11:27     8400.00       -7.937914     -14.7         60
iter: 290  13:11:57     8700.00       -7.937914     -14.5         55
Writing to na_td.gpw (mode='all')

Wrote restart file.
300  iterations done. Current time is  9000.0  as.
iter: 300  13:12:27     9000.00       -7.937914     -14.7         60
iter: 310  13:12:57     9300.00       -7.937914     -15.8         59
iter: 320  13:13:26     9600.00       -7.937914     -14.7         60
iter: 330  13:13:56     9900.00       -7.937914     -15.5         59
iter: 340  13:14:25    10200.00       -7.937914     -14.7         55
iter: 350  13:14:55    10500.00       -7.937914     -14.5         61
iter: 360  13:15:25    10800.00       -7.937915     -14.8         59
iter: 370  13:15:55    11100.00       -7.937914     -15.1         55
iter: 380  13:16:24    11400.00       -7.937914     -14.5         60
iter: 390  13:16:54    11700.00       -7.937914     -15.0         60
Writing to na_td.gpw (mode='all')

Wrote restart file.
400  iterations done. Current time is  11999.999999999964  as.
iter: 400  13:17:23    12000.00       -7.937914     -15.8         56
iter: 410  13:17:53    12300.00       -7.937914     -14.7         59
iter: 420  13:18:22    12600.00       -7.937914     -15.2         55
iter: 430  13:18:51    12900.00       -7.937914     -14.9         56
iter: 440  13:19:21    13200.00       -7.937914     -14.2         59
iter: 450  13:19:50    13500.00       -7.937914     -14.7         56
iter: 460  13:20:19    13800.00       -7.937914     -14.8         56
iter: 470  13:20:49    14100.00       -7.937914     -14.5         56
iter: 480  13:21:18    14400.00       -7.937914     -14.2         55
iter: 490  13:21:47    14700.00       -7.937914     -15.4         57
Writing to na_td.gpw (mode='all')

Wrote restart file.
500  iterations done. Current time is  15000.000000000047  as.
iter: 500  13:22:17    15000.00       -7.937914     -14.8         63
iter: 510  13:22:47    15300.00       -7.937915     -14.5         56
iter: 520  13:23:17    15600.00       -7.937914     -14.9         60
iter: 530  13:23:48    15900.00       -7.937915     -15.7         56
iter: 540  13:24:16    16200.00       -7.937915     -14.5         56
iter: 550  13:24:46    16500.00       -7.937915     -14.9         59
iter: 560  13:25:15    16800.00       -7.937915     -15.4         56
iter: 570  13:25:45    17100.00       -7.937915     -14.6         58
iter: 580  13:26:14    17400.00       -7.937915     -15.3         60
iter: 590  13:26:43    17700.00       -7.937915     -14.4         55
Writing to na_td.gpw (mode='all')

Wrote restart file.
600  iterations done. Current time is  18000.00000000015  as.
iter: 600  13:27:12    18000.00       -7.937915     -15.2         60
iter: 610  13:27:43    18300.00       -7.937915     -15.3         64
iter: 620  13:28:13    18600.00       -7.937915     -14.3         56
iter: 630  13:28:43    18900.00       -7.937915     -15.2         64
iter: 640  13:29:15    19200.00       -7.937915     -14.8         55
iter: 650  13:29:45    19500.00       -7.937915     -15.2         61
iter: 660  13:30:17    19800.00       -7.937915     -14.4         63
iter: 670  13:30:47    20100.00       -7.937915     -14.8         56
iter: 680  13:31:16    20400.00       -7.937915     -14.4         56
iter: 690  13:31:46    20700.00       -7.937915     -15.8         63
Writing to na_td.gpw (mode='all')

Wrote restart file.
700  iterations done. Current time is  21000.00000000025  as.
iter: 700  13:32:16    21000.00       -7.937915     -14.7         55
iter: 710  13:32:45    21300.00       -7.937915     -15.1         59
iter: 720  13:33:16    21600.00       -7.937915     -15.0         63
iter: 730  13:33:46    21900.00       -7.937915     -14.5         56
iter: 740  13:34:17    22200.00       -7.937915     -14.6         63
iter: 750  13:34:47    22500.00       -7.937915     -15.4         55
iter: 760  13:35:16    22800.00       -7.937915     -15.7         56
iter: 770  13:35:46    23100.00       -7.937915     -14.7         63
iter: 780  13:36:15    23400.00       -7.937915     -14.8         55
iter: 790  13:36:44    23700.00       -7.937915     -14.3         56
Writing to na_td.gpw (mode='all')

Wrote restart file.
800  iterations done. Current time is  24000.000000000353  as.
iter: 800  13:37:14    24000.00       -7.937915     -14.9         63
iter: 810  13:37:45    24300.00       -7.937915     -14.9         56
iter: 820  13:38:15    24600.00       -7.937915     -14.3         63
iter: 830  13:38:47    24900.00       -7.937915     -15.4         63
iter: 840  13:39:16    25200.00       -7.937914     -14.8         56
iter: 850  13:39:48    25500.00       -7.937915     -15.0         63
iter: 860  13:40:18    25800.00       -7.937914     -14.5         55
iter: 870  13:40:48    26100.00       -7.937914     -14.8         64
iter: 880  13:41:19    26400.00       -7.937915     -14.4         62
iter: 890  13:41:49    26700.00       -7.937914     -14.5         55
Writing to na_td.gpw (mode='all')

Wrote restart file.
900  iterations done. Current time is  27000.00000000045  as.
iter: 900  13:42:18    27000.00       -7.937914     -14.3         62
iter: 910  13:42:47    27300.00       -7.937915     -15.1         63
iter: 920  13:43:17    27600.00       -7.937915     -15.4         55
iter: 930  13:43:48    27900.00       -7.937915     -14.9         63
iter: 940  13:44:19    28200.00       -7.937915     -15.4         60
iter: 950  13:44:48    28500.00       -7.937915     -14.6         55
iter: 960  13:45:19    28800.00       -7.937915     -14.4         64
iter: 970  13:45:48    29100.00       -7.937915     -14.9         55
iter: 980  13:46:17    29400.00       -7.937914     -14.7         56
iter: 990  13:46:49    29700.00       -7.937915     -14.4         61
Writing to na_td.gpw (mode='all')

Wrote restart file.
1000  iterations done. Current time is  30000.000000000553  as.
iter: 1000  13:47:18    30000.00       -7.937915     -14.9         55
iter: 1010  13:47:47    30300.00       -7.937914     -14.4         56
iter: 1020  13:48:19    30600.00       -7.937914     -14.8         60
iter: 1030  13:48:50    30900.00       -7.937914     -14.6         55
iter: 1040  13:49:20    31200.00       -7.937914     -15.8         63
iter: 1050  13:49:51    31500.00       -7.937914     -15.0         55
iter: 1060  13:50:20    31800.00       -7.937915     -14.8         63
iter: 1070  13:50:52    32100.00       -7.937915     -15.5         60
iter: 1080  13:51:21    32400.00       -7.937915     -14.7         55
iter: 1090  13:51:50    32700.00       -7.937915     -14.6         56
Writing to na_td.gpw (mode='all')

Wrote restart file.
1100  iterations done. Current time is  33000.000000000655  as.
iter: 1100  13:52:19    33000.00       -7.937915     -14.9         56
iter: 1110  13:52:49    33300.00       -7.937915     -14.6         60
iter: 1120  13:53:18    33600.00       -7.937914     -15.2         56
iter: 1130  13:53:48    33900.00       -7.937914     -14.8         60
iter: 1140  13:54:17    34200.00       -7.937914     -14.7         56
iter: 1150  13:54:47    34500.00       -7.937914     -14.8         64
iter: 1160  13:55:17    34800.00       -7.937914     -14.6         56
iter: 1170  13:55:47    35100.00       -7.937915     -14.6         60
iter: 1180  13:56:17    35400.00       -7.937914     -14.9         59
iter: 1190  13:56:47    35700.00       -7.937914     -14.5         55
Writing to na_td.gpw (mode='all')

Wrote restart file.
1200  iterations done. Current time is  36000.00000000076  as.
iter: 1200  13:57:16    36000.00       -7.937914     -14.8         56
iter: 1210  13:57:46    36300.00       -7.937914     -15.7         57
iter: 1220  13:58:16    36600.00       -7.937915     -14.6         55
iter: 1230  13:58:44    36900.00       -7.937915     -14.4         55
iter: 1240  13:59:14    37200.00       -7.937914     -15.5         59
iter: 1250  13:59:43    37500.00       -7.937914     -15.1         56
iter: 1260  14:00:13    37800.00       -7.937914     -15.1         59
iter: 1270  14:00:43    38100.00       -7.937914     -14.5         56
iter: 1280  14:01:12    38400.00       -7.937914     -15.4         59
iter: 1290  14:01:42    38700.00       -7.937914     -14.5         60
Writing to na_td.gpw (mode='all')

Wrote restart file.
1300  iterations done. Current time is  39000.00000000086  as.
iter: 1300  14:02:12    39000.00       -7.937914     -14.6         55
iter: 1310  14:02:40    39300.00       -7.937913     -14.9         56
iter: 1320  14:03:10    39600.00       -7.937913     -14.6         56
iter: 1330  14:03:39    39900.00       -7.937914     -15.3         56
iter: 1340  14:04:08    40200.00       -7.937913     -14.3         57
iter: 1350  14:04:39    40500.00       -7.937913     -14.3         60
iter: 1360  14:05:09    40800.00       -7.937913     -14.4         56
iter: 1370  14:05:40    41100.00       -7.937913     -15.0         59
iter: 1380  14:06:10    41400.00       -7.937913     -14.6         56
iter: 1390  14:06:39    41700.00       -7.937913     -16.0         56
Writing to na_td.gpw (mode='all')

Wrote restart file.
1400  iterations done. Current time is  42000.00000000096  as.
iter: 1400  14:07:10    42000.00       -7.937913     -14.3         57
iter: 1410  14:07:39    42300.00       -7.937913     -14.6         56
iter: 1420  14:08:07    42600.00       -7.937913     -14.4         56
iter: 1430  14:08:37    42900.00       -7.937913     -14.7         63
iter: 1440  14:09:09    43200.00       -7.937913     -14.3         55
iter: 1450  14:09:39    43500.00       -7.937913     -14.7         60
iter: 1460  14:10:09    43800.00       -7.937913     -14.9         55
iter: 1470  14:10:37    44100.00       -7.937913     -14.7         56
iter: 1480  14:11:07    44400.00       -7.937913     -16.0         60
iter: 1490  14:11:37    44700.00       -7.937913     -14.6         56
Writing to na_td.gpw (mode='all')

Wrote restart file.
1500  iterations done. Current time is  45000.00000000106  as.
Writing to na_td.gpw (mode='all')

Calculating photoabsorption spectrum from file "na_dm.dat"
Sinc contamination 0.00000000
Calculated photoabsorption spectrum saved to file "na_spectrum_z.dat"
Timing:                                      incl.     excl.
-------------------------------------------------------------------
Apply approximate inverse overlap:           0.002     0.002   0.0% |
Apply time-dependent operators:              0.018     0.018   0.0% |
CSCG:                                        0.089     0.031   0.0% |
 Apply time-dependent operators:             0.054     0.054   0.0% |
 Solve TDDFT preconditioner:                 0.003     0.003   0.0% |
Density initialized from wave functions:     0.025     0.025   0.0% |
 Symmetrize density:                         0.000     0.000   0.0% |
Hamiltonian:                                 0.286     0.000   0.0% |
 Atomic:                                     0.026     0.002   0.0% |
  XC Correction:                             0.024     0.024   0.0% |
 Calculate atomic Hamiltonians:              0.005     0.005   0.0% |
 Communicate:                                0.001     0.001   0.0% |
 Hartree integrate/restrict:                 0.010     0.010   0.0% |
 Poisson:                                    0.150     0.008   0.0% |
  Communicate bwd 0:                         0.011     0.011   0.0% |
  Communicate bwd 1:                         0.042     0.042   0.0% |
  Communicate fwd 0:                         0.042     0.042   0.0% |
  Communicate fwd 1:                         0.011     0.011   0.0% |
  fft:                                       0.013     0.013   0.0% |
  fft2:                                      0.021     0.021   0.0% |
 XC 3D grid:                                 0.092     0.092   0.0% |
 vbar:                                       0.002     0.002   0.0% |
Propagate:                                4476.746    44.845   1.0% |
 Apply approximate inverse overlap:          7.987     7.987   0.2% |
 Apply time-dependent operators:            77.887    77.887   1.7% ||
 CSCG:                                    3397.586   960.747  21.4% |--------|
  Apply time-dependent operators:         2337.239  2337.239  52.2% |--------------------|
  Solve TDDFT preconditioner:               99.600    99.600   2.2% ||
 Density:                                    3.601     0.004   0.0% |
  Atomic density matrices:                   0.136     0.136   0.0% |
  Mix:                                       3.271     3.271   0.1% |
  Multipole moments:                         0.021     0.021   0.0% |
  Pseudo density:                            0.169     0.167   0.0% |
   Symmetrize density:                       0.003     0.003   0.0% |
 Hamiltonian:                               41.322     0.019   0.0% |
  Atomic:                                    3.788     0.110   0.0% |
   XC Correction:                            3.678     3.678   0.1% |
  Calculate atomic Hamiltonians:             0.639     0.639   0.0% |
  Communicate:                               0.032     0.032   0.0% |
  Hartree integrate/restrict:                1.693     1.693   0.0% |
  Poisson:                                  21.095     1.207   0.0% |
   Communicate bwd 0:                        1.455     1.455   0.0% |
   Communicate bwd 1:                        6.166     6.166   0.1% |
   Communicate fwd 0:                        5.739     5.739   0.1% |
   Communicate fwd 1:                        1.455     1.455   0.0% |
   fft:                                      1.936     1.936   0.0% |
   fft2:                                     3.136     3.136   0.1% |
  XC 3D grid:                               13.745    13.745   0.3% |
  vbar:                                      0.311     0.311   0.0% |
 Update time-dependent operators:          903.518     3.165   0.1% |
  Density:                                  72.524     0.074   0.0% |
   Atomic density matrices:                  2.731     2.731   0.1% |
   Mix:                                     65.751    65.751   1.5% ||
   Multipole moments:                        0.432     0.432   0.0% |
   Pseudo density:                           3.536     3.479   0.1% |
    Symmetrize density:                      0.058     0.058   0.0% |
  Hamiltonian:                             827.829     0.375   0.0% |
   Atomic:                                  75.820     2.236   0.0% |
    XC Correction:                          73.584    73.584   1.6% ||
   Calculate atomic Hamiltonians:           13.648    13.648   0.3% |
   Communicate:                              0.566     0.566   0.0% |
   Hartree integrate/restrict:              34.416    34.416   0.8% |
   Poisson:                                421.694    24.011   0.5% |
    Communicate bwd 0:                      29.026    29.026   0.6% |
    Communicate bwd 1:                     123.450   123.450   2.8% ||
    Communicate fwd 0:                     114.827   114.827   2.6% ||
    Communicate fwd 1:                      29.201    29.201   0.7% |
    fft:                                    38.595    38.595   0.9% |
    fft2:                                   62.584    62.584   1.4% ||
   XC 3D grid:                             274.921   274.921   6.1% |-|
   vbar:                                     6.388     6.388   0.1% |
Redistribute:                                0.001     0.001   0.0% |
Set symmetry:                                0.001     0.001   0.0% |
Update time-dependent operators:             0.001     0.001   0.0% |
Other:                                       2.001     2.001   0.0% |
-------------------------------------------------------------------
Total:                                              4479.171 100.0%

Memory usage: 192.84 MiB
Date: Thu Feb 27 14:12:05 2020
