
  ___ ___ ___ _ _ _  
 |   |   |_  | | | | 
 | | | | | . | | | | 
 |__ |  _|___|_____|  19.8.1
 |___|_|             

User:   holmins@hebbe12-2
Date:   Wed Feb  5 21:11:24 2020
Arch:   x86_64
Pid:    22504
Python: 3.7.2
gpaw:   /apps/Hebbe7/software/MPI/intel/2019.1.144-GCC-8.2.0-2.31.1/impi/2018.4.274/GPAW/19.8.1-Python-3.7.2/lib/python3.7/site-packages/gpaw
_gpaw:  /apps/Hebbe7/software/MPI/intel/2019.1.144-GCC-8.2.0-2.31.1/impi/2018.4.274/GPAW/19.8.1-Python-3.7.2/bin/
        gpaw-python
ase:    /apps/Hebbe7/software/MPI/intel/2019.1.144-GCC-8.2.0-2.31.1/impi/2018.4.274/ASE/3.18.0-Python-3.7.2/lib/python3.7/site-packages/ase (version 3.18.0)
numpy:  /apps/Hebbe7/software/MPI/intel/2019.1.144-GCC-8.2.0-2.31.1/impi/2018.4.274/SciPy-bundle/2019.03/lib/python3.7/site-packages/numpy (version 1.16.2)
scipy:  /apps/Hebbe7/software/MPI/intel/2019.1.144-GCC-8.2.0-2.31.1/impi/2018.4.274/SciPy-bundle/2019.03/lib/python3.7/site-packages/scipy (version 1.2.1)
libxc:  4.3.4
units:  Angstrom and eV
cores:  1

Input parameters:
  basis: dzp
  h: 0.25
  mode: pw
  nbands: 10
  occupations: {name: fermi-dirac,
                width: 0.05}
  setups: {Na: 1}

System changes: positions, numbers, cell, pbc, initial_charges, initial_magmoms 

Initialize ...

Na-setup:
  name: Sodium
  id: fa5c50181d04022fed15b2593599c257
  Z: 11
  valence: 1
  core: 10
  charge: 0.0
  file: /apps/Common/Core/GPAW-setups/0.9.20000/Na.1.LDA.gz
  compensation charges: gauss, rc=0.43, lmax=2
  cutoffs: 2.36(filt), 3.60(core),
  valence states:
                energy  radius
    3s(1.00)    -2.819   1.349
    3p(0.00)    -0.774   1.349
    *s          24.392   1.349

  LCAO basis set for Na:
    Name: 1.dzp
    File: /apps/Common/Core/GPAW-setups/0.9.20000/Na.1.dzp.basis.gz
    Number of radial functions: 3
    Number of spherical harmonics: 5
      l=0, rc=11.7656 Bohr: 3s-sz confined orbital
      l=0, rc=7.1094 Bohr: 3s-dz split-valence wave
      l=1, rc=11.7656 Bohr: p-type Gaussian polarization

Reference energy: -26392.251304

Spin-paired calculation

Occupation numbers:
  Fermi-Dirac: width=0.0500 eV

Convergence criteria:
  Maximum total energy change: 0.0005 eV / electron
  Maximum integral of absolute density change: 0.0001 electrons
  Maximum integral of absolute eigenstate change: 4e-08 eV^2
  Maximum number of iterations: 333

Symmetries present (total): 1

  ( 1  0  0)
  ( 0  1  0)
  ( 0  0  1)

1 k-point (Gamma)
1 k-point in the irreducible part of the Brillouin zone
       k-points in crystal coordinates                weights
   0:     0.00000000    0.00000000    0.00000000          1/1

Wave functions: Plane wave expansion
  Cutoff energy: 340.000 eV
  Number of coefficients: 58077 (reduced to 29039)
  Pulay-stress correction: 0.000000 eV/Ang^3 (de/decut=0.000000)
  Using FFTW library
  ScaLapack parameters: grid=1x1, blocksize=None
  Wavefunction extrapolation:
    Improved wavefunction reuse through dual PAW basis 

Eigensolver
   Davidson(niter=2, smin=None, normalize=True) 

Densities:
  Coarse grid: 64*64*64 grid
  Fine grid: 128*128*128 grid
  Total Charge: 0.000000 

Density mixing:
  Method: separate
  Backend: pulay
  Linear mixing parameter: 0.05
  Mixing with 5 old densities
  Damping of long wave oscillations: 50 

Hamiltonian:
  XC and Coulomb potentials evaluated on a 128*128*128 grid
  Using the LDA Exchange-Correlation functional
 

Memory estimate:
  Process memory now: 197.21 MiB
  Calculator: 176.53 MiB
    Density: 123.30 MiB
      Arrays: 52.00 MiB
      Localized functions: 51.30 MiB
      Mixer: 20.00 MiB
    Hamiltonian: 35.05 MiB
      Arrays: 34.00 MiB
      XC: 0.00 MiB
      Poisson: 0.00 MiB
      vbar: 1.05 MiB
    Wavefunctions: 18.18 MiB
      Arrays psit_nG: 4.43 MiB
      Eigensolver: 6.65 MiB
      Projections: 0.00 MiB
      Projectors: 1.55 MiB
      PW-descriptor: 5.54 MiB

Total number of cores used: 1

Number of atoms: 6
Number of atomic orbitals: 30
Number of bands in calculation: 10
Bands to converge: occupied states only
Number of valence electrons: 6

... initialized

Initializing position-dependent things.

Density initialized from atomic densities
Creating initial wave functions:
  10 bands from LCAO basis set

           .--------------------------------------.  
          /|                                      |  
         / |                                      |  
        /  |                                      |  
       /   |                                      |  
      /    |                                      |  
     /     |                                      |  
    /      |                                      |  
   /       |                                      |  
  /        |                                      |  
 *         |                                      |  
 |         |                                      |  
 |         |          Na                          |  
 |         |            Na                        |  
 |         |                                      |  
 |         |               Na                     |  
 |         |            Na                        |  
 |         |                                      |  
 |         |              Na                      |  
 |         |                                      |  
 |         .-------------Na-----------------------.  
 |        /                                      /   
 |       /                                      /    
 |      /                                      /     
 |     /                                      /      
 |    /                                      /       
 |   /                                      /        
 |  /                                      /         
 | /                                      /          
 |/                                      /           
 *--------------------------------------*            

Positions:
   0 Na     7.067612    9.458423    8.911254    ( 0.0000,  0.0000,  0.0000)
   1 Na     6.753529    7.081981   11.181019    ( 0.0000,  0.0000,  0.0000)
   2 Na     7.719195    6.035271    8.210598    ( 0.0000,  0.0000,  0.0000)
   3 Na     8.655705    5.263752    5.142034    ( 0.0000,  0.0000,  0.0000)
   4 Na     7.580252   11.620434    6.481886    ( 0.0000,  0.0000,  0.0000)
   5 Na     8.139119    8.465218    5.679422    ( 0.0000,  0.0000,  0.0000)

Unit cell:
           periodic     x           y           z      points  spacing
  1. axis:    no    16.000000    0.000000    0.000000    64     0.2500
  2. axis:    no     0.000000   16.000000    0.000000    64     0.2500
  3. axis:    no     0.000000    0.000000   16.000000    64     0.2500

  Lengths:  16.000000  16.000000  16.000000
  Angles:   90.000000  90.000000  90.000000

Effective grid spacing dv^(1/3) = 0.2500

                     log10-error:    total        iterations:
           time      wfs    density  energy       fermi  poisson
iter:   1  21:11:27  +0.62   +inf    -5.593294    2             
iter:   2  21:11:28  -1.77  -0.47    -5.526768    3             
iter:   3  21:11:29  -2.19  -0.50    -5.286367    9             
iter:   4  21:11:30  -2.84  -0.90    -5.275933    3             
iter:   5  21:11:31  -2.90  -0.92    -5.263456    3             
iter:   6  21:11:32  -3.42  -1.43    -5.263612    2             
iter:   7  21:11:33  -3.87  -1.61    -5.264023    2             
iter:   8  21:11:34  -4.14  -1.77    -5.264485    2             
iter:   9  21:11:35  -4.59  -2.26    -5.264475    2             
iter:  10  21:11:36  -5.04  -2.62    -5.264467    2             
iter:  11  21:11:37  -5.47  -2.83    -5.264468    1             
iter:  12  21:11:38  -5.78  -2.85    -5.264468    1             
iter:  13  21:11:39  -6.25  -3.23    -5.264468    1             
iter:  14  21:11:40  -6.65  -3.33    -5.264468    1             
iter:  15  21:11:41  -7.01  -3.38    -5.264468    1             
iter:  16  21:11:42  -7.35  -3.57    -5.264468    1             
iter:  17  21:11:43  -7.76  -3.83    -5.264468    1             
iter:  18  21:11:44  -8.11  -3.90    -5.264468    1             
iter:  19  21:11:45  -8.55  -4.34    -5.264468    1             

Converged after 19 iterations.

Dipole moment: (0.000341, 0.020271, 0.019738) |e|*Ang

Energy contributions relative to reference atoms: (reference = -26392.251304)

Kinetic:        +11.785350
Potential:      -10.845941
External:        +0.000000
XC:              -6.202770
Entropy (-ST):   -0.000017
Local:           -0.001098
--------------------------
Free energy:     -5.264476
Extrapolated:    -5.264468

Fermi level: -2.38195

 Band  Eigenvalues  Occupancy
    0     -4.01896    2.00000
    1     -3.01943    1.99999
    2     -3.01344    1.99999
    3     -1.77542    0.00001
    4     -1.65592    0.00000
    5     -1.62865    0.00000
    6     -1.42297    0.00000
    7     -0.63795    0.00000
    8     -0.60761    0.00000
    9     -0.58837    0.00000

Gap: 1.238 eV
Transition (v -> c):
  (s=0, k=0, n=2, [0.00, 0.00, 0.00]) -> (s=0, k=0, n=3, [0.00, 0.00, 0.00])
System changes: positions 

Initializing position-dependent things.

Density initialized from wave functions
           .--------------------------------------.  
          /|                                      |  
         / |                                      |  
        /  |                                      |  
       /   |                                      |  
      /    |                                      |  
     /     |                                      |  
    /      |                                      |  
   /       |                                      |  
  /        |                                      |  
 *         |                                      |  
 |         |               Na                     |  
 |         |                                      |  
 |         |                     Na               |  
 |         |                                      |  
 |         |        Na   Na                       |  
 |         |                                      |  
 |         |                                      |  
 |         |                 Na                   |  
 |         |         Na                           |  
 |         .--------------------------------------.  
 |        /                                      /   
 |       /                                      /    
 |      /                                      /     
 |     /                                      /      
 |    /                                      /       
 |   /                                      /        
 |  /                                      /         
 | /                                      /          
 |/                                      /           
 *--------------------------------------*            

Positions:
   0 Na     7.260931    9.580741    7.493961    ( 0.0000,  0.0000,  0.0000)
   1 Na    10.358243   10.419606    7.991874    ( 0.0000,  0.0000,  0.0000)
   2 Na     8.389072    8.814170   10.443149    ( 0.0000,  0.0000,  0.0000)
   3 Na     6.405310    7.312331    5.318965    ( 0.0000,  0.0000,  0.0000)
   4 Na     5.945555    6.904525    8.783225    ( 0.0000,  0.0000,  0.0000)
   5 Na     9.127926    9.492149    4.829169    ( 0.0000,  0.0000,  0.0000)

Unit cell:
           periodic     x           y           z      points  spacing
  1. axis:    no    16.000000    0.000000    0.000000    64     0.2500
  2. axis:    no     0.000000   16.000000    0.000000    64     0.2500
  3. axis:    no     0.000000    0.000000   16.000000    64     0.2500

  Lengths:  16.000000  16.000000  16.000000
  Angles:   90.000000  90.000000  90.000000

Effective grid spacing dv^(1/3) = 0.2500

                     log10-error:    total        iterations:
           time      wfs    density  energy       fermi  poisson
iter:   1  21:11:46  +0.49   +inf    -9.475579    23            
iter:   2  21:11:47  -0.41  -0.02    -9.170680    4             
iter:   3  21:11:48  -1.11  -0.03    -8.525701    5             
iter:   4  21:11:49  -0.98  -0.07    -5.476086    22            
iter:   5  21:11:50  -1.86  -0.49    -5.447071    2             
iter:   6  21:11:51  -2.16  -0.52    -5.317673    2             
iter:   7  21:11:52  -2.62  -0.80    -5.325550    3             
iter:   8  21:11:53  -2.93  -0.92    -5.319077    2             
iter:   9  21:11:54  -3.36  -1.22    -5.324759    2             
iter:  10  21:11:55  -3.67  -1.37    -5.325005    3             
iter:  11  21:11:56  -4.11  -1.65    -5.325596    2             
iter:  12  21:11:57  -4.66  -1.88    -5.325610    2             
iter:  13  21:11:58  -5.05  -1.91    -5.325690    1             
iter:  14  21:11:59  -5.05  -2.00    -5.325934    2             
iter:  15  21:12:00  -5.55  -2.21    -5.325931    2             
iter:  16  21:12:01  -5.83  -2.26    -5.325900    2             
iter:  17  21:12:02  -6.43  -2.37    -5.325894    2             
iter:  18  21:12:03  -5.77  -2.41    -5.325901    2             
iter:  19  21:12:04  -6.80  -3.00    -5.325899    1             
iter:  20  21:12:05  -7.57  -3.09    -5.325899    1             
iter:  21  21:12:06  -7.28  -3.14    -5.325899    1             
iter:  22  21:12:07  -7.97  -3.39    -5.325899    1             
iter:  23  21:12:08  -8.56  -3.53    -5.325899    1             
iter:  24  21:12:09  -8.96  -3.61    -5.325899    1             
iter:  25  21:12:10  -8.84  -3.66    -5.325899    1             
iter:  26  21:12:11  -9.04  -3.77    -5.325899    1             
iter:  27  21:12:12  -9.97  -3.84    -5.325899    1             
iter:  28  21:12:13  -8.91  -3.86    -5.325899    1             
iter:  29  21:12:14  -9.85  -4.23    -5.325899    1             

Converged after 29 iterations.

Dipole moment: (0.084146, -0.098210, -0.000415) |e|*Ang

Energy contributions relative to reference atoms: (reference = -26392.251304)

Kinetic:        +11.853512
Potential:      -10.744692
External:        +0.000000
XC:              -6.432875
Entropy (-ST):   -0.000039
Local:           -0.001824
--------------------------
Free energy:     -5.325919
Extrapolated:    -5.325899

Fermi level: -2.35141

 Band  Eigenvalues  Occupancy
    0     -4.11739    2.00000
    1     -2.94124    1.99998
    2     -2.93771    1.99998
    3     -1.79463    0.00003
    4     -1.63474    0.00000
    5     -1.61847    0.00000
    6     -1.33540    0.00000
    7     -0.75710    0.00000
    8     -0.72128    0.00000
    9     -0.37291    0.00000

Gap: 1.143 eV
Transition (v -> c):
  (s=0, k=0, n=2, [0.00, 0.00, 0.00]) -> (s=0, k=0, n=3, [0.00, 0.00, 0.00])
System changes: positions 

Initializing position-dependent things.

Density initialized from wave functions
           .--------------------------------------.  
          /|                                      |  
         / |                                      |  
        /  |                                      |  
       /   |                                      |  
      /    |                                      |  
     /     |                                      |  
    /      |                                      |  
   /       |                                      |  
  /        |                                      |  
 *         |                                      |  
 |         |                                      |  
 |         |          Na                          |  
 |         |            Na                        |  
 |         |                                      |  
 |         |               Na                     |  
 |         |            Na                        |  
 |         |                                      |  
 |         |              Na                      |  
 |         |                                      |  
 |         .-------------Na-----------------------.  
 |        /                                      /   
 |       /                                      /    
 |      /                                      /     
 |     /                                      /      
 |    /                                      /       
 |   /                                      /        
 |  /                                      /         
 | /                                      /          
 |/                                      /           
 *--------------------------------------*            

Positions:
   0 Na     7.067612    9.458423    8.911254    ( 0.0000,  0.0000,  0.0000)
   1 Na     6.753529    7.081981   11.181019    ( 0.0000,  0.0000,  0.0000)
   2 Na     7.719195    6.035271    8.210598    ( 0.0000,  0.0000,  0.0000)
   3 Na     8.655705    5.263752    5.142034    ( 0.0000,  0.0000,  0.0000)
   4 Na     7.580252   11.620434    6.481886    ( 0.0000,  0.0000,  0.0000)
   5 Na     8.139119    8.465218    5.679422    ( 0.0000,  0.0000,  0.0000)

Unit cell:
           periodic     x           y           z      points  spacing
  1. axis:    no    16.000000    0.000000    0.000000    64     0.2500
  2. axis:    no     0.000000   16.000000    0.000000    64     0.2500
  3. axis:    no     0.000000    0.000000   16.000000    64     0.2500

  Lengths:  16.000000  16.000000  16.000000
  Angles:   90.000000  90.000000  90.000000

Effective grid spacing dv^(1/3) = 0.2500

                     log10-error:    total        iterations:
           time      wfs    density  energy       fermi  poisson
iter:   1  21:12:15  +0.45   +inf    -8.806413    18            
iter:   2  21:12:16  -0.43  -0.02    -8.425450    3             
iter:   3  21:12:17  -1.12  -0.04    -6.380056    23            
iter:   4  21:12:18  -1.40  -0.21    -5.418252    10            
iter:   5  21:12:19  -2.01  -0.47    -5.337619    4             
iter:   6  21:12:20  -1.96  -0.57    -5.286581    7             
iter:   7  21:12:21  -2.79  -0.95    -5.264381    3             
iter:   8  21:12:22  -2.88  -1.08    -5.262125    3             
iter:   9  21:12:23  -3.60  -1.39    -5.262800    2             
iter:  10  21:12:24  -3.98  -1.46    -5.263584    2             
iter:  11  21:12:25  -4.30  -1.61    -5.264322    2             
iter:  12  21:12:26  -4.53  -1.76    -5.264428    2             
iter:  13  21:12:27  -5.09  -2.15    -5.264454    1             
iter:  14  21:12:28  -5.55  -2.25    -5.264457    1             
iter:  15  21:12:29  -5.42  -2.29    -5.264467    1             
iter:  16  21:12:30  -6.12  -2.72    -5.264467    1             
iter:  17  21:12:31  -6.58  -2.86    -5.264468    1             
iter:  18  21:12:32  -6.75  -2.93    -5.264469    1             
iter:  19  21:12:33  -7.21  -3.13    -5.264468    1             
iter:  20  21:12:33  -7.64  -3.19    -5.264468    1             
iter:  21  21:12:34  -7.81  -3.22    -5.264468    0             
iter:  22  21:12:35  -7.96  -3.29    -5.264468    1             
iter:  23  21:12:36  -8.20  -3.37    -5.264468    1             
iter:  24  21:12:37  -8.27  -3.52    -5.264468    1             
iter:  25  21:12:38  -9.05  -3.81    -5.264468    1             
iter:  26  21:12:39  -9.26  -3.84    -5.264468    1             
iter:  27  21:12:40  -9.18  -3.95    -5.264468    1             
iter:  28  21:12:41  -9.97  -4.03    -5.264468    1             

Converged after 28 iterations.

Dipole moment: (0.000328, 0.019957, 0.019758) |e|*Ang

Energy contributions relative to reference atoms: (reference = -26392.251304)

Kinetic:        +11.784724
Potential:      -10.845424
External:        +0.000000
XC:              -6.202821
Entropy (-ST):   -0.000017
Local:           -0.000939
--------------------------
Free energy:     -5.264476
Extrapolated:    -5.264468

Fermi level: -2.38192

 Band  Eigenvalues  Occupancy
    0     -4.01891    2.00000
    1     -3.01939    1.99999
    2     -3.01340    1.99999
    3     -1.77539    0.00001
    4     -1.65588    0.00000
    5     -1.62862    0.00000
    6     -1.42295    0.00000
    7     -0.64630    0.00000
    8     -0.62716    0.00000
    9     -0.58446    0.00000

Gap: 1.238 eV
Transition (v -> c):
  (s=0, k=0, n=2, [0.00, 0.00, 0.00]) -> (s=0, k=0, n=3, [0.00, 0.00, 0.00])

Forces in eV/Ang:
  0 Na    0.00973   -0.02321   -0.01408
  1 Na   -0.00262    0.00012    0.00086
  2 Na   -0.00261    0.02491   -0.00555
  3 Na    0.00339   -0.00588   -0.00182
  4 Na   -0.00108   -0.00144   -0.00397
  5 Na   -0.00681    0.00577    0.02443

System changes: positions 

Initializing position-dependent things.

Density initialized from wave functions
           .--------------------------------------.  
          /|                                      |  
         / |                                      |  
        /  |                                      |  
       /   |                                      |  
      /    |                                      |  
     /     |                                      |  
    /      |                                      |  
   /       |                                      |  
  /        |                                      |  
 *         |                                      |  
 |         |                                      |  
 |         |          Na                          |  
 |         |            Na                        |  
 |         |                                      |  
 |         |               Na                     |  
 |         |            Na                        |  
 |         |              Na                      |  
 |         |                                      |  
 |         |                                      |  
 |         .-------------Na-----------------------.  
 |        /                                      /   
 |       /                                      /    
 |      /                                      /     
 |     /                                      /      
 |    /                                      /       
 |   /                                      /        
 |  /                                      /         
 | /                                      /          
 |/                                      /           
 *--------------------------------------*            

Positions:
   0 Na     7.149850    9.262369    8.792341    ( 0.0000,  0.0000,  0.0000)
   1 Na     6.731377    7.082964   11.188252    ( 0.0000,  0.0000,  0.0000)
   2 Na     7.697171    6.245735    8.163721    ( 0.0000,  0.0000,  0.0000)
   3 Na     8.684314    5.214035    5.126675    ( 0.0000,  0.0000,  0.0000)
   4 Na     7.571124   11.608270    6.448374    ( 0.0000,  0.0000,  0.0000)
   5 Na     8.081600    8.514003    5.885800    ( 0.0000,  0.0000,  0.0000)

Unit cell:
           periodic     x           y           z      points  spacing
  1. axis:    no    16.000000    0.000000    0.000000    64     0.2500
  2. axis:    no     0.000000   16.000000    0.000000    64     0.2500
  3. axis:    no     0.000000    0.000000   16.000000    64     0.2500

  Lengths:  16.000000  16.000000  16.000000
  Angles:   90.000000  90.000000  90.000000

Effective grid spacing dv^(1/3) = 0.2500

                     log10-error:    total        iterations:
           time      wfs    density  energy       fermi  poisson
iter:   1  21:12:43  -1.03   +inf    -5.267213    3             
iter:   2  21:12:44  -2.29  -0.83    -5.243582    2             
iter:   3  21:12:45  -2.37  -0.89    -5.178322    4             
iter:   4  21:12:46  -3.52  -1.41    -5.178356    2             
iter:   5  21:12:47  -4.06  -1.45    -5.178646    2             
iter:   6  21:12:48  -3.83  -1.56    -5.178709    2             
iter:   7  21:12:49  -4.61  -1.91    -5.178628    2             
iter:   8  21:12:50  -4.85  -2.08    -5.178725    2             
iter:   9  21:12:51  -5.34  -2.46    -5.178722    2             
iter:  10  21:12:52  -5.56  -2.49    -5.178705    2             
iter:  11  21:12:53  -6.12  -2.99    -5.178705    1             
iter:  12  21:12:54  -6.54  -3.06    -5.178705    1             
iter:  13  21:12:55  -6.91  -3.23    -5.178704    1             
iter:  14  21:12:56  -7.37  -3.57    -5.178704    1             
iter:  15  21:12:57  -7.56  -3.63    -5.178704    1             
iter:  16  21:12:58  -8.11  -3.73    -5.178704    1             
iter:  17  21:12:59  -8.55  -3.88    -5.178704    1             
iter:  18  21:13:00  -8.80  -3.96    -5.178704    1             
iter:  19  21:13:01  -9.27  -4.06    -5.178704    1             

Converged after 19 iterations.

Dipole moment: (-0.015250, 0.056562, 0.054827) |e|*Ang

Energy contributions relative to reference atoms: (reference = -26392.251304)

Kinetic:        +14.854373
Potential:      -13.170144
External:        +0.000000
XC:              -6.861653
Entropy (-ST):   -0.000047
Local:           -0.001258
--------------------------
Free energy:     -5.178728
Extrapolated:    -5.178704

Fermi level: -2.40601

 Band  Eigenvalues  Occupancy
    0     -4.12676    2.00000
    1     -3.02542    1.99999
    2     -2.96073    1.99997
    3     -1.86322    0.00004
    4     -1.54605    0.00000
    5     -1.53628    0.00000
    6     -1.47852    0.00000
    7     -0.63500    0.00000
    8     -0.61114    0.00000
    9     -0.59655    0.00000

Gap: 1.098 eV
Transition (v -> c):
  (s=0, k=0, n=2, [0.00, 0.00, 0.00]) -> (s=0, k=0, n=3, [0.00, 0.00, 0.00])

Forces in eV/Ang:
  0 Na   -0.08485    0.25788    0.18835
  1 Na   -0.00736   -0.00374    0.02178
  2 Na    0.03488   -0.29603    0.00177
  3 Na   -0.02152    0.07774    0.05043
  4 Na   -0.01528    0.05182    0.02850
  5 Na    0.09458   -0.08776   -0.29072

System changes: positions 

Initializing position-dependent things.

Density initialized from wave functions
           .--------------------------------------.  
          /|                                      |  
         / |                                      |  
        /  |                                      |  
       /   |                                      |  
      /    |                                      |  
     /     |                                      |  
    /      |                                      |  
   /       |                                      |  
  /        |                                      |  
 *         |                                      |  
 |         |                                      |  
 |         |          Na                          |  
 |         |            Na                        |  
 |         |                                      |  
 |         |               Na                     |  
 |         |            Na                        |  
 |         |                                      |  
 |         |              Na                      |  
 |         |                                      |  
 |         .-------------Na-----------------------.  
 |        /                                      /   
 |       /                                      /    
 |      /                                      /     
 |     /                                      /      
 |    /                                      /       
 |   /                                      /        
 |  /                                      /         
 | /                                      /          
 |/                                      /           
 *--------------------------------------*            

Positions:
   0 Na     7.094103    9.415880    8.897291    ( 0.0000,  0.0000,  0.0000)
   1 Na     6.735188    7.081286   11.194192    ( 0.0000,  0.0000,  0.0000)
   2 Na     7.716609    6.073824    8.178218    ( 0.0000,  0.0000,  0.0000)
   3 Na     8.667888    5.257539    5.149910    ( 0.0000,  0.0000,  0.0000)
   4 Na     7.568155   11.631077    6.468837    ( 0.0000,  0.0000,  0.0000)
   5 Na     8.133652    8.467059    5.717063    ( 0.0000,  0.0000,  0.0000)

Unit cell:
           periodic     x           y           z      points  spacing
  1. axis:    no    16.000000    0.000000    0.000000    64     0.2500
  2. axis:    no     0.000000   16.000000    0.000000    64     0.2500
  3. axis:    no     0.000000    0.000000   16.000000    64     0.2500

  Lengths:  16.000000  16.000000  16.000000
  Angles:   90.000000  90.000000  90.000000

Effective grid spacing dv^(1/3) = 0.2500

                     log10-error:    total        iterations:
           time      wfs    density  energy       fermi  poisson
iter:   1  21:13:04  -1.06   +inf    -5.370127    3             
iter:   2  21:13:05  -2.30  -0.81    -5.341449    2             
iter:   3  21:13:06  -2.48  -0.87    -5.265127    4             
iter:   4  21:13:07  -3.62  -1.42    -5.264803    2             
iter:   5  21:13:08  -4.05  -1.48    -5.264605    2             
iter:   6  21:13:09  -3.96  -1.61    -5.264567    2             
iter:   7  21:13:10  -4.37  -1.80    -5.264660    2             
iter:   8  21:13:11  -4.90  -2.27    -5.264690    2             
iter:   9  21:13:12  -5.28  -2.38    -5.264658    1             
iter:  10  21:13:13  -5.63  -2.69    -5.264652    2             
iter:  11  21:13:14  -6.18  -3.02    -5.264652    1             
iter:  12  21:13:15  -6.58  -3.07    -5.264652    1             
iter:  13  21:13:16  -6.81  -3.23    -5.264652    1             
iter:  14  21:13:17  -7.35  -3.33    -5.264651    1             
iter:  15  21:13:17  -7.73  -3.37    -5.264651    1             
iter:  16  21:13:18  -7.73  -3.40    -5.264651    1             
iter:  17  21:13:19  -8.13  -3.71    -5.264651    1             
iter:  18  21:13:20  -8.59  -3.79    -5.264651    1             
iter:  19  21:13:21  -9.01  -3.92    -5.264651    1             
iter:  20  21:13:22  -9.22  -3.98    -5.264651    1             
iter:  21  21:13:23  -9.00  -4.02    -5.264651    1             

Converged after 21 iterations.

Dipole moment: (-0.000753, 0.018289, 0.019380) |e|*Ang

Energy contributions relative to reference atoms: (reference = -26392.251304)

Kinetic:        +12.125891
Potential:      -11.100039
External:        +0.000000
XC:              -6.289273
Entropy (-ST):   -0.000021
Local:           -0.001220
--------------------------
Free energy:     -5.264662
Extrapolated:    -5.264651

Fermi level: -2.38739

 Band  Eigenvalues  Occupancy
    0     -4.03603    2.00000
    1     -3.01531    1.99999
    2     -3.00548    1.99999
    3     -1.79613    0.00001
    4     -1.63854    0.00000
    5     -1.60444    0.00000
    6     -1.43073    0.00000
    7     -0.64167    0.00000
    8     -0.62081    0.00000
    9     -0.59914    0.00000

Gap: 1.209 eV
Transition (v -> c):
  (s=0, k=0, n=2, [0.00, 0.00, 0.00]) -> (s=0, k=0, n=3, [0.00, 0.00, 0.00])

Forces in eV/Ang:
  0 Na   -0.00165    0.01967    0.00206
  1 Na    0.00292   -0.00520   -0.01477
  2 Na   -0.00840   -0.01188    0.03312
  3 Na    0.00502   -0.00178   -0.01011
  4 Na   -0.00215   -0.01300    0.00670
  5 Na    0.00425    0.01227   -0.01689

System changes: positions 

Initializing position-dependent things.

Density initialized from wave functions
           .--------------------------------------.  
          /|                                      |  
         / |                                      |  
        /  |                                      |  
       /   |                                      |  
      /    |                                      |  
     /     |                                      |  
    /      |                                      |  
   /       |                                      |  
  /        |                                      |  
 *         |                                      |  
 |         |                                      |  
 |         |          Na                          |  
 |         |            Na                        |  
 |         |                                      |  
 |         |               Na                     |  
 |         |            Na                        |  
 |         |                                      |  
 |         |              Na                      |  
 |         |                                      |  
 |         .-------------Na-----------------------.  
 |        /                                      /   
 |       /                                      /    
 |      /                                      /     
 |     /                                      /      
 |    /                                      /       
 |   /                                      /        
 |  /                                      /         
 | /                                      /          
 |/                                      /           
 *--------------------------------------*            

Positions:
   0 Na     7.083236    9.431800    8.891468    ( 0.0000,  0.0000,  0.0000)
   1 Na     6.749228    7.079374   11.176186    ( 0.0000,  0.0000,  0.0000)
   2 Na     7.711010    6.067737    8.216157    ( 0.0000,  0.0000,  0.0000)
   3 Na     8.664385    5.254074    5.135316    ( 0.0000,  0.0000,  0.0000)
   4 Na     7.576197   11.613080    6.478348    ( 0.0000,  0.0000,  0.0000)
   5 Na     8.131383    8.479613    5.708540    ( 0.0000,  0.0000,  0.0000)

Unit cell:
           periodic     x           y           z      points  spacing
  1. axis:    no    16.000000    0.000000    0.000000    64     0.2500
  2. axis:    no     0.000000   16.000000    0.000000    64     0.2500
  3. axis:    no     0.000000    0.000000   16.000000    64     0.2500

  Lengths:  16.000000  16.000000  16.000000
  Angles:   90.000000  90.000000  90.000000

Effective grid spacing dv^(1/3) = 0.2500

                     log10-error:    total        iterations:
           time      wfs    density  energy       fermi  poisson
iter:   1  21:13:26  -2.63   +inf    -5.269732    1             
iter:   2  21:13:26  -3.91  -1.55    -5.268323    1             
iter:   3  21:13:27  -4.11  -1.63    -5.264941    2             
iter:   4  21:13:28  -5.13  -2.09    -5.264946    1             
iter:   5  21:13:29  -5.17  -2.19    -5.264868    1             
iter:   6  21:13:30  -5.64  -2.50    -5.264856    1             
iter:   7  21:13:31  -5.87  -2.58    -5.264869    1             
iter:   8  21:13:32  -6.30  -2.94    -5.264868    1             
iter:   9  21:13:33  -6.85  -3.30    -5.264867    1             
iter:  10  21:13:34  -7.26  -3.60    -5.264867    1             
iter:  11  21:13:35  -7.75  -3.87    -5.264867    1             
iter:  12  21:13:36  -8.17  -3.94    -5.264867    1             
iter:  13  21:13:37  -8.58  -4.05    -5.264867    1             

Converged after 13 iterations.

Dipole moment: (-0.004389, 0.031703, 0.030363) |e|*Ang

Energy contributions relative to reference atoms: (reference = -26392.251304)

Kinetic:        +12.154419
Potential:      -11.128295
External:        +0.000000
XC:              -6.289944
Entropy (-ST):   -0.000019
Local:           -0.001038
--------------------------
Free energy:     -5.264877
Extrapolated:    -5.264867

Fermi level: -2.38478

 Band  Eigenvalues  Occupancy
    0     -4.03358    2.00000
    1     -3.02104    1.99999
    2     -3.00566    1.99999
    3     -1.78742    0.00001
    4     -1.63566    0.00000
    5     -1.61980    0.00000
    6     -1.42996    0.00000
    7     -0.64433    0.00000
    8     -0.62390    0.00000
    9     -0.59917    0.00000

Gap: 1.218 eV
Transition (v -> c):
  (s=0, k=0, n=2, [0.00, 0.00, 0.00]) -> (s=0, k=0, n=3, [0.00, 0.00, 0.00])

Forces in eV/Ang:
  0 Na   -0.00098    0.00384    0.00867
  1 Na   -0.00662    0.00326    0.01443
  2 Na    0.00882   -0.01175   -0.02904
  3 Na   -0.00425    0.01591    0.01605
  4 Na   -0.00364    0.01613   -0.00037
  5 Na    0.00671   -0.02740   -0.00967

System changes: positions 

Initializing position-dependent things.

Density initialized from wave functions
           .--------------------------------------.  
          /|                                      |  
         / |                                      |  
        /  |                                      |  
       /   |                                      |  
      /    |                                      |  
     /     |                                      |  
    /      |                                      |  
   /       |                                      |  
  /        |                                      |  
 *         |                                      |  
 |         |                                      |  
 |         |          Na                          |  
 |         |            Na                        |  
 |         |                                      |  
 |         |               Na                     |  
 |         |            Na                        |  
 |         |                                      |  
 |         |              Na                      |  
 |         |                                      |  
 |         .-------------Na-----------------------.  
 |        /                                      /   
 |       /                                      /    
 |      /                                      /     
 |     /                                      /      
 |    /                                      /       
 |   /                                      /        
 |  /                                      /         
 | /                                      /          
 |/                                      /           
 *--------------------------------------*            

Positions:
   0 Na     7.110142    9.433938    8.903385    ( 0.0000,  0.0000,  0.0000)
   1 Na     6.720020    7.071439   11.184971    ( 0.0000,  0.0000,  0.0000)
   2 Na     7.703637    6.061911    8.200841    ( 0.0000,  0.0000,  0.0000)
   3 Na     8.685989    5.262305    5.148332    ( 0.0000,  0.0000,  0.0000)
   4 Na     7.549352   11.625884    6.472487    ( 0.0000,  0.0000,  0.0000)
   5 Na     8.146673    8.472773    5.695136    ( 0.0000,  0.0000,  0.0000)

Unit cell:
           periodic     x           y           z      points  spacing
  1. axis:    no    16.000000    0.000000    0.000000    64     0.2500
  2. axis:    no     0.000000   16.000000    0.000000    64     0.2500
  3. axis:    no     0.000000    0.000000   16.000000    64     0.2500

  Lengths:  16.000000  16.000000  16.000000
  Angles:   90.000000  90.000000  90.000000

Effective grid spacing dv^(1/3) = 0.2500

                     log10-error:    total        iterations:
           time      wfs    density  energy       fermi  poisson
iter:   1  21:13:39  -2.63   +inf    -5.267947    2             
iter:   2  21:13:40  -3.83  -1.68    -5.267321    1             
iter:   3  21:13:41  -4.16  -1.75    -5.265711    2             
iter:   4  21:13:42  -5.24  -2.21    -5.265725    1             
iter:   5  21:13:43  -5.49  -2.29    -5.265706    1             
iter:   6  21:13:44  -5.67  -2.57    -5.265706    1             
iter:   7  21:13:45  -6.15  -2.72    -5.265711    1             
iter:   8  21:13:46  -6.65  -3.04    -5.265712    1             
iter:   9  21:13:47  -6.84  -3.17    -5.265712    1             
iter:  10  21:13:48  -7.35  -3.60    -5.265712    1             
iter:  11  21:13:49  -7.82  -3.87    -5.265712    1             
iter:  12  21:13:50  -8.21  -3.90    -5.265712    1             
iter:  13  21:13:51  -8.49  -4.07    -5.265712    1             

Converged after 13 iterations.

Dipole moment: (-0.004891, 0.022996, 0.024824) |e|*Ang

Energy contributions relative to reference atoms: (reference = -26392.251304)

Kinetic:        +11.913681
Potential:      -10.938838
External:        +0.000000
XC:              -6.239496
Entropy (-ST):   -0.000019
Local:           -0.001050
--------------------------
Free energy:     -5.265722
Extrapolated:    -5.265712

Fermi level: -2.38494

 Band  Eigenvalues  Occupancy
    0     -4.02741    2.00000
    1     -3.01369    1.99999
    2     -3.01108    1.99999
    3     -1.78786    0.00001
    4     -1.64488    0.00000
    5     -1.61546    0.00000
    6     -1.42653    0.00000
    7     -0.64341    0.00000
    8     -0.62485    0.00000
    9     -0.60543    0.00000

Gap: 1.223 eV
Transition (v -> c):
  (s=0, k=0, n=2, [0.00, 0.00, 0.00]) -> (s=0, k=0, n=3, [0.00, 0.00, 0.00])

Forces in eV/Ang:
  0 Na   -0.00077   -0.00033    0.00041
  1 Na    0.00005    0.00277   -0.00573
  2 Na    0.00098   -0.00061   -0.00241
  3 Na    0.00058    0.00253    0.00280
  4 Na   -0.00029   -0.00505    0.00116
  5 Na   -0.00046    0.00059    0.00373

System changes: positions 

Initializing position-dependent things.

Density initialized from wave functions
           .--------------------------------------.  
          /|                                      |  
         / |                                      |  
        /  |                                      |  
       /   |                                      |  
      /    |                                      |  
     /     |                                      |  
    /      |                                      |  
   /       |                                      |  
  /        |                                      |  
 *         |                                      |  
 |         |               Na                     |  
 |         |                                      |  
 |         |                     Na               |  
 |         |                                      |  
 |         |        Na   Na                       |  
 |         |                                      |  
 |         |                                      |  
 |         |                 Na                   |  
 |         |         Na                           |  
 |         .--------------------------------------.  
 |        /                                      /   
 |       /                                      /    
 |      /                                      /     
 |     /                                      /      
 |    /                                      /       
 |   /                                      /        
 |  /                                      /         
 | /                                      /          
 |/                                      /           
 *--------------------------------------*            

Positions:
   0 Na     7.260931    9.580741    7.493961    ( 0.0000,  0.0000,  0.0000)
   1 Na    10.358243   10.419606    7.991874    ( 0.0000,  0.0000,  0.0000)
   2 Na     8.389072    8.814170   10.443149    ( 0.0000,  0.0000,  0.0000)
   3 Na     6.405310    7.312331    5.318965    ( 0.0000,  0.0000,  0.0000)
   4 Na     5.945555    6.904525    8.783225    ( 0.0000,  0.0000,  0.0000)
   5 Na     9.127926    9.492149    4.829169    ( 0.0000,  0.0000,  0.0000)

Unit cell:
           periodic     x           y           z      points  spacing
  1. axis:    no    16.000000    0.000000    0.000000    64     0.2500
  2. axis:    no     0.000000   16.000000    0.000000    64     0.2500
  3. axis:    no     0.000000    0.000000   16.000000    64     0.2500

  Lengths:  16.000000  16.000000  16.000000
  Angles:   90.000000  90.000000  90.000000

Effective grid spacing dv^(1/3) = 0.2500

                     log10-error:    total        iterations:
           time      wfs    density  energy       fermi  poisson
iter:   1  21:13:53  +0.52   +inf    -9.475627    24            
iter:   2  21:13:54  -0.34  -0.02    -9.183051    4             
iter:   3  21:13:55  -1.01  -0.03    -8.985560    3             
iter:   4  21:13:56  -1.49  -0.04    -7.758139    8             
iter:   5  21:13:57  -0.90  -0.11    -6.930803    21            
iter:   6  21:13:58  -1.66  -0.21    -5.614210    9             
iter:   7  21:13:59  -1.90  -0.42    -5.394470    5             
iter:   8  21:14:00  -2.33  -0.53    -5.555752    6             
iter:   9  21:14:01  -1.99  -0.53    -5.321373    5             
iter:  10  21:14:02  -3.11  -1.00    -5.326854    3             
iter:  11  21:14:03  -3.37  -1.06    -5.329056    2             
iter:  12  21:14:04  -3.23  -1.27    -5.325180    3             
iter:  13  21:14:05  -4.35  -1.54    -5.324744    2             
iter:  14  21:14:06  -4.56  -1.59    -5.325221    2             
iter:  15  21:14:07  -4.16  -1.71    -5.326363    2             
iter:  16  21:14:08  -4.80  -1.87    -5.325865    2             
iter:  17  21:14:09  -5.27  -2.13    -5.325818    2             
iter:  18  21:14:10  -5.82  -2.19    -5.325842    2             
iter:  19  21:14:11  -5.85  -2.33    -5.325857    2             
iter:  20  21:14:11  -6.41  -2.41    -5.325860    1             
iter:  21  21:14:12  -6.58  -2.48    -5.325861    1             
iter:  22  21:14:13  -7.06  -2.54    -5.325864    1             
iter:  23  21:14:14  -7.19  -2.58    -5.325869    1             
iter:  24  21:14:15  -7.47  -2.62    -5.325874    1             
iter:  25  21:14:16  -6.54  -2.66    -5.325896    1             
iter:  26  21:14:17  -7.37  -2.97    -5.325897    1             
iter:  27  21:14:18  -7.37  -3.04    -5.325899    1             
iter:  28  21:14:19  -7.67  -3.26    -5.325899    1             
iter:  29  21:14:20  -8.30  -3.50    -5.325899    1             
iter:  30  21:14:21  -8.76  -3.61    -5.325899    1             
iter:  31  21:14:22  -8.81  -3.67    -5.325899    1             
iter:  32  21:14:23  -9.18  -3.80    -5.325899    1             
iter:  33  21:14:24  -9.30  -3.89    -5.325899    1             
iter:  34  21:14:25  -9.37  -3.97    -5.325899    1             
iter:  35  21:14:26  -9.19  -4.05    -5.325899    1             

Converged after 35 iterations.

Dipole moment: (0.083975, -0.098189, -0.000374) |e|*Ang

Energy contributions relative to reference atoms: (reference = -26392.251304)

Kinetic:        +11.852780
Potential:      -10.744008
External:        +0.000000
XC:              -6.432917
Entropy (-ST):   -0.000039
Local:           -0.001735
--------------------------
Free energy:     -5.325919
Extrapolated:    -5.325899

Fermi level: -2.35136

 Band  Eigenvalues  Occupancy
    0     -4.11729    2.00000
    1     -2.94120    1.99998
    2     -2.93764    1.99998
    3     -1.79459    0.00003
    4     -1.63472    0.00000
    5     -1.61845    0.00000
    6     -1.33535    0.00000
    7     -0.75708    0.00000
    8     -0.72124    0.00000
    9     -0.37322    0.00000

Gap: 1.143 eV
Transition (v -> c):
  (s=0, k=0, n=2, [0.00, 0.00, 0.00]) -> (s=0, k=0, n=3, [0.00, 0.00, 0.00])

Forces in eV/Ang:
  0 Na   -0.01558    0.01722   -0.00463
  1 Na   -0.00276   -0.00933    0.00163
  2 Na    0.00420   -0.00209   -0.01206
  3 Na    0.00847    0.00243    0.00756
  4 Na    0.00805   -0.00151   -0.00316
  5 Na   -0.00205   -0.00692    0.01066

System changes: positions 

Initializing position-dependent things.

Density initialized from wave functions
           .--------------------------------------.  
          /|                                      |  
         / |                                      |  
        /  |                                      |  
       /   |                                      |  
      /    |                                      |  
     /     |                                      |  
    /      |                                      |  
   /       |                                      |  
  /        |                                      |  
 *         |                                      |  
 |         |                                      |  
 |         |               Na                     |  
 |         |                                      |  
 |         |                     Na               |  
 |         |        Na  Na                        |  
 |         |                                      |  
 |         |                                      |  
 |         |                 Na                   |  
 |         |         Na                           |  
 |         .--------------------------------------.  
 |        /                                      /   
 |       /                                      /    
 |      /                                      /     
 |     /                                      /      
 |    /                                      /       
 |   /                                      /        
 |  /                                      /         
 | /                                      /          
 |/                                      /           
 *--------------------------------------*            

Positions:
   0 Na     7.081243    9.779305    7.440579    ( 0.0000,  0.0000,  0.0000)
   1 Na    10.326390   10.312017    8.010646    ( 0.0000,  0.0000,  0.0000)
   2 Na     8.437521    8.790098   10.304020    ( 0.0000,  0.0000,  0.0000)
   3 Na     6.502969    7.340313    5.406169    ( 0.0000,  0.0000,  0.0000)
   4 Na     6.038456    6.887107    8.746726    ( 0.0000,  0.0000,  0.0000)
   5 Na     9.104264    9.412309    4.952079    ( 0.0000,  0.0000,  0.0000)

Unit cell:
           periodic     x           y           z      points  spacing
  1. axis:    no    16.000000    0.000000    0.000000    64     0.2500
  2. axis:    no     0.000000   16.000000    0.000000    64     0.2500
  3. axis:    no     0.000000    0.000000   16.000000    64     0.2500

  Lengths:  16.000000  16.000000  16.000000
  Angles:   90.000000  90.000000  90.000000

Effective grid spacing dv^(1/3) = 0.2500

                     log10-error:    total        iterations:
           time      wfs    density  energy       fermi  poisson
iter:   1  21:14:28  -0.87   +inf    -5.408184    2             
iter:   2  21:14:29  -2.01  -0.81    -5.385095    2             
iter:   3  21:14:30  -2.38  -0.86    -5.314772    4             
iter:   4  21:14:31  -3.51  -1.35    -5.315063    3             
iter:   5  21:14:32  -4.05  -1.40    -5.314443    2             
iter:   6  21:14:33  -3.97  -1.48    -5.313185    2             
iter:   7  21:14:34  -4.27  -1.71    -5.313309    2             
iter:   8  21:14:35  -4.85  -2.30    -5.313383    2             
iter:   9  21:14:36  -5.25  -2.36    -5.313372    2             
iter:  10  21:14:37  -5.55  -2.59    -5.313399    2             
iter:  11  21:14:38  -6.03  -2.82    -5.313399    1             
iter:  12  21:14:39  -6.13  -2.85    -5.313402    2             
iter:  13  21:14:40  -6.67  -3.14    -5.313401    2             
iter:  14  21:14:40  -7.04  -3.33    -5.313401    1             
iter:  15  21:14:41  -7.25  -3.39    -5.313401    1             
iter:  16  21:14:42  -7.67  -3.93    -5.313400    1             
iter:  17  21:14:43  -8.05  -4.04    -5.313400    1             

Converged after 17 iterations.

Dipole moment: (0.057490, -0.072754, -0.012620) |e|*Ang

Energy contributions relative to reference atoms: (reference = -26392.251304)

Kinetic:        +13.116898
Potential:      -11.708508
External:        +0.000000
XC:              -6.720326
Entropy (-ST):   -0.000123
Local:           -0.001402
--------------------------
Free energy:     -5.313462
Extrapolated:    -5.313400

Fermi level: -2.41205

 Band  Eigenvalues  Occupancy
    0     -4.18444    2.00000
    1     -2.95011    1.99996
    2     -2.92627    1.99993
    3     -1.92188    0.00011
    4     -1.58381    0.00000
    5     -1.56878    0.00000
    6     -1.32484    0.00000
    7     -0.81194    0.00000
    8     -0.77104    0.00000
    9     -0.29177    0.00000

Gap: 1.004 eV
Transition (v -> c):
  (s=0, k=0, n=2, [0.00, 0.00, 0.00]) -> (s=0, k=0, n=3, [0.00, 0.00, 0.00])

Forces in eV/Ang:
  0 Na    0.02016   -0.01722    0.06468
  1 Na    0.01297    0.03351   -0.01434
  2 Na   -0.02795   -0.01342    0.03403
  3 Na   -0.04309   -0.04586   -0.04228
  4 Na   -0.01014    0.01668    0.01839
  5 Na    0.04808    0.02627   -0.06057

System changes: positions 

Initializing position-dependent things.

Density initialized from wave functions
           .--------------------------------------.  
          /|                                      |  
         / |                                      |  
        /  |                                      |  
       /   |                                      |  
      /    |                                      |  
     /     |                                      |  
    /      |                                      |  
   /       |                                      |  
  /        |                                      |  
 *         |                                      |  
 |         |                                      |  
 |         |               Na                     |  
 |         |                                      |  
 |         |            Na       Na               |  
 |         |        Na                            |  
 |         |                                      |  
 |         |                                      |  
 |         |                 Na                   |  
 |         |         Na                           |  
 |         .--------------------------------------.  
 |        /                                      /   
 |       /                                      /    
 |      /                                      /     
 |     /                                      /      
 |    /                                      /       
 |   /                                      /        
 |  /                                      /         
 | /                                      /          
 |/                                      /           
 *--------------------------------------*            

Positions:
   0 Na     7.021303    9.863293    7.628910    ( 0.0000,  0.0000,  0.0000)
   1 Na    10.348775   10.351426    7.973941    ( 0.0000,  0.0000,  0.0000)
   2 Na     8.374598    8.725442   10.322324    ( 0.0000,  0.0000,  0.0000)
   3 Na     6.422693    7.199600    5.321129    ( 0.0000,  0.0000,  0.0000)
   4 Na     6.070425    6.933027    8.784773    ( 0.0000,  0.0000,  0.0000)
   5 Na     9.255932    9.446470    4.828758    ( 0.0000,  0.0000,  0.0000)

Unit cell:
           periodic     x           y           z      points  spacing
  1. axis:    no    16.000000    0.000000    0.000000    64     0.2500
  2. axis:    no     0.000000   16.000000    0.000000    64     0.2500
  3. axis:    no     0.000000    0.000000   16.000000    64     0.2500

  Lengths:  16.000000  16.000000  16.000000
  Angles:   90.000000  90.000000  90.000000

Effective grid spacing dv^(1/3) = 0.2500

                     log10-error:    total        iterations:
           time      wfs    density  energy       fermi  poisson
iter:   1  21:14:46  -0.89   +inf    -5.481937    4             
iter:   2  21:14:46  -2.07  -0.68    -5.414609    2             
iter:   3  21:14:47  -2.35  -0.76    -5.270786    4             
iter:   4  21:14:48  -3.31  -1.24    -5.269956    1             
iter:   5  21:14:49  -3.43  -1.34    -5.266274    3             
iter:   6  21:14:50  -3.72  -1.64    -5.266746    2             
iter:   7  21:14:51  -4.10  -1.73    -5.266646    3             
iter:   8  21:14:52  -4.61  -2.11    -5.266712    2             
iter:   9  21:14:53  -5.02  -2.19    -5.266645    2             
iter:  10  21:14:54  -5.33  -2.45    -5.266616    2             
iter:  11  21:14:55  -5.73  -2.74    -5.266614    2             
iter:  12  21:14:56  -6.21  -2.85    -5.266612    1             
iter:  13  21:14:57  -6.57  -2.90    -5.266610    1             
iter:  14  21:14:58  -6.93  -2.95    -5.266609    1             
iter:  15  21:14:59  -6.99  -3.01    -5.266609    2             
iter:  16  21:15:00  -7.55  -3.11    -5.266610    1             
iter:  17  21:15:01  -7.55  -3.18    -5.266611    1             
iter:  18  21:15:01  -8.04  -3.33    -5.266611    1             
iter:  19  21:15:02  -7.82  -3.41    -5.266611    1             
iter:  20  21:15:03  -8.59  -4.23    -5.266611    1             

Converged after 20 iterations.

Dipole moment: (0.047904, -0.049790, 0.023524) |e|*Ang

Energy contributions relative to reference atoms: (reference = -26392.251304)

Kinetic:        +10.080710
Potential:       -9.303635
External:        +0.000000
XC:              -6.042288
Entropy (-ST):   -0.000193
Local:           -0.001301
--------------------------
Free energy:     -5.266707
Extrapolated:    -5.266611

Fermi level: -2.40984

 Band  Eigenvalues  Occupancy
    0     -4.10976    2.00000
    1     -2.93795    1.99995
    2     -2.89187    1.99987
    3     -1.94444    0.00018
    4     -1.62856    0.00000
    5     -1.57348    0.00000
    6     -1.30076    0.00000
    7     -0.83242    0.00000
    8     -0.78342    0.00000
    9     -0.35309    0.00000

Gap: 0.947 eV
Transition (v -> c):
  (s=0, k=0, n=2, [0.00, 0.00, 0.00]) -> (s=0, k=0, n=3, [0.00, 0.00, 0.00])

Forces in eV/Ang:
  0 Na    0.10170   -0.10326   -0.16983
  1 Na   -0.04181    0.00077   -0.01914
  2 Na    0.06220    0.04197    0.07260
  3 Na    0.06416    0.12258    0.06841
  4 Na   -0.05914   -0.03718   -0.06047
  5 Na   -0.12715   -0.02497    0.10850

System changes: positions 

Initializing position-dependent things.

Density initialized from wave functions
           .--------------------------------------.  
          /|                                      |  
         / |                                      |  
        /  |                                      |  
       /   |                                      |  
      /    |                                      |  
     /     |                                      |  
    /      |                                      |  
   /       |                                      |  
  /        |                                      |  
 *         |                                      |  
 |         |               Na                     |  
 |         |                                      |  
 |         |                                      |  
 |         |                     Na               |  
 |         |        Na   Na                       |  
 |         |                                      |  
 |         |                                      |  
 |         |                 Na                   |  
 |         |         Na                           |  
 |         .--------------------------------------.  
 |        /                                      /   
 |       /                                      /    
 |      /                                      /     
 |     /                                      /      
 |    /                                      /       
 |   /                                      /        
 |  /                                      /         
 | /                                      /          
 |/                                      /           
 *--------------------------------------*            

Positions:
   0 Na     7.178372    9.683516    7.493509    ( 0.0000,  0.0000,  0.0000)
   1 Na    10.337469   10.383621    7.977435    ( 0.0000,  0.0000,  0.0000)
   2 Na     8.406721    8.786932   10.407147    ( 0.0000,  0.0000,  0.0000)
   3 Na     6.440564    7.305075    5.348223    ( 0.0000,  0.0000,  0.0000)
   4 Na     5.986338    6.903701    8.760678    ( 0.0000,  0.0000,  0.0000)
   5 Na     9.140829    9.458553    4.873134    ( 0.0000,  0.0000,  0.0000)

Unit cell:
           periodic     x           y           z      points  spacing
  1. axis:    no    16.000000    0.000000    0.000000    64     0.2500
  2. axis:    no     0.000000   16.000000    0.000000    64     0.2500
  3. axis:    no     0.000000    0.000000   16.000000    64     0.2500

  Lengths:  16.000000  16.000000  16.000000
  Angles:   90.000000  90.000000  90.000000

Effective grid spacing dv^(1/3) = 0.2500

                     log10-error:    total        iterations:
           time      wfs    density  energy       fermi  poisson
iter:   1  21:15:06  -1.03   +inf    -5.443463    3             
iter:   2  21:15:07  -2.25  -0.79    -5.404917    2             
iter:   3  21:15:07  -2.59  -0.87    -5.327709    2             
iter:   4  21:15:08  -3.52  -1.39    -5.327535    2             
iter:   5  21:15:09  -3.85  -1.46    -5.327575    2             
iter:   6  21:15:10  -4.14  -1.74    -5.327951    2             
iter:   7  21:15:11  -4.51  -1.83    -5.327936    2             
iter:   8  21:15:12  -5.07  -2.36    -5.327944    1             
iter:   9  21:15:13  -5.19  -2.41    -5.327916    2             
iter:  10  21:15:14  -5.84  -2.96    -5.327913    1             
iter:  11  21:15:15  -6.27  -2.99    -5.327913    1             
iter:  12  21:15:16  -6.49  -3.03    -5.327912    1             
iter:  13  21:15:17  -6.97  -3.33    -5.327912    1             
iter:  14  21:15:18  -7.36  -3.40    -5.327912    1             
iter:  15  21:15:19  -7.45  -3.45    -5.327912    1             
iter:  16  21:15:20  -7.96  -3.69    -5.327912    1             
iter:  17  21:15:21  -8.34  -3.86    -5.327912    1             
iter:  18  21:15:22  -8.69  -3.95    -5.327912    1             
iter:  19  21:15:23  -9.05  -4.02    -5.327912    1             

Converged after 19 iterations.

Dipole moment: (0.076150, -0.088219, -0.000064) |e|*Ang

Energy contributions relative to reference atoms: (reference = -26392.251304)

Kinetic:        +11.939529
Potential:      -10.803414
External:        +0.000000
XC:              -6.462923
Entropy (-ST):   -0.000066
Local:           -0.001072
--------------------------
Free energy:     -5.327945
Extrapolated:    -5.327912

Fermi level: -2.37659

 Band  Eigenvalues  Occupancy
    0     -4.13546    2.00000
    1     -2.94119    1.99998
    2     -2.93167    1.99997
    3     -1.85085    0.00005
    4     -1.61650    0.00000
    5     -1.60027    0.00000
    6     -1.32630    0.00000
    7     -0.78382    0.00000
    8     -0.74556    0.00000
    9     -0.34482    0.00000

Gap: 1.081 eV
Transition (v -> c):
  (s=0, k=0, n=2, [0.00, 0.00, 0.00]) -> (s=0, k=0, n=3, [0.00, 0.00, 0.00])

Forces in eV/Ang:
  0 Na    0.00454   -0.01340    0.00005
  1 Na    0.00230    0.00096    0.01097
  2 Na   -0.00308    0.00510   -0.01087
  3 Na    0.00253    0.00706   -0.00019
  4 Na    0.00187    0.00267    0.00309
  5 Na   -0.00844   -0.00220   -0.00321

System changes: positions 

Initializing position-dependent things.

Density initialized from wave functions
           .--------------------------------------.  
          /|                                      |  
         / |                                      |  
        /  |                                      |  
       /   |                                      |  
      /    |                                      |  
     /     |                                      |  
    /      |                                      |  
   /       |                                      |  
  /        |                                      |  
 *         |                                      |  
 |         |                                      |  
 |         |          Na                          |  
 |         |            Na                        |  
 |         |                                      |  
 |         |               Na                     |  
 |         |            Na                        |  
 |         |                                      |  
 |         |              Na                      |  
 |         |                                      |  
 |         .-------------Na-----------------------.  
 |        /                                      /   
 |       /                                      /    
 |      /                                      /     
 |     /                                      /      
 |    /                                      /       
 |   /                                      /        
 |  /                                      /         
 | /                                      /          
 |/                                      /           
 *--------------------------------------*            

Positions:
   0 Na     7.110142    9.433938    8.903385    ( 0.0000,  0.0000,  0.0000)
   1 Na     6.720020    7.071439   11.184971    ( 0.0000,  0.0000,  0.0000)
   2 Na     7.703637    6.061911    8.200841    ( 0.0000,  0.0000,  0.0000)
   3 Na     8.685989    5.262305    5.148332    ( 0.0000,  0.0000,  0.0000)
   4 Na     7.549352   11.625884    6.472487    ( 0.0000,  0.0000,  0.0000)
   5 Na     8.146673    8.472773    5.695136    ( 0.0000,  0.0000,  0.0000)

Unit cell:
           periodic     x           y           z      points  spacing
  1. axis:    no    16.000000    0.000000    0.000000    64     0.2500
  2. axis:    no     0.000000   16.000000    0.000000    64     0.2500
  3. axis:    no     0.000000    0.000000   16.000000    64     0.2500

  Lengths:  16.000000  16.000000  16.000000
  Angles:   90.000000  90.000000  90.000000

Effective grid spacing dv^(1/3) = 0.2500

                     log10-error:    total        iterations:
           time      wfs    density  energy       fermi  poisson
iter:   1  21:15:25  +0.46   +inf    -9.108079    13            
iter:   2  21:15:26  -0.43  -0.01    -8.666835    3             
iter:   3  21:15:27  -1.10  -0.03    -6.327416    26            
iter:   4  21:15:28  -1.39  -0.22    -5.419725    9             
iter:   5  21:15:28  -2.01  -0.48    -5.342911    3             
iter:   6  21:15:29  -1.97  -0.57    -5.285716    7             
iter:   7  21:15:30  -2.78  -0.96    -5.265757    3             
iter:   8  21:15:31  -2.87  -1.07    -5.263256    3             
iter:   9  21:15:32  -3.57  -1.38    -5.263991    2             
iter:  10  21:15:33  -3.91  -1.45    -5.265106    2             
iter:  11  21:15:34  -4.29  -1.72    -5.265694    2             
iter:  12  21:15:35  -4.70  -1.95    -5.265703    2             
iter:  13  21:15:36  -5.19  -2.14    -5.265730    1             
iter:  14  21:15:37  -5.16  -2.18    -5.265713    2             
iter:  15  21:15:38  -5.79  -2.74    -5.265712    1             
iter:  16  21:15:39  -6.28  -2.84    -5.265711    1             
iter:  17  21:15:40  -6.61  -2.91    -5.265711    1             
iter:  18  21:15:41  -6.94  -3.09    -5.265712    1             
iter:  19  21:15:42  -7.40  -3.17    -5.265711    1             
iter:  20  21:15:43  -7.70  -3.19    -5.265712    1             
iter:  21  21:15:44  -7.81  -3.24    -5.265712    1             
iter:  22  21:15:45  -8.19  -3.39    -5.265712    1             
iter:  23  21:15:45  -7.93  -3.49    -5.265712    1             
iter:  24  21:15:46  -8.58  -3.85    -5.265712    1             
iter:  25  21:15:47  -9.13  -4.09    -5.265712    1             

Converged after 25 iterations.

Dipole moment: (-0.004863, 0.022868, 0.024672) |e|*Ang

Energy contributions relative to reference atoms: (reference = -26392.251304)

Kinetic:        +11.914169
Potential:      -10.939171
External:        +0.000000
XC:              -6.239665
Entropy (-ST):   -0.000019
Local:           -0.001037
--------------------------
Free energy:     -5.265722
Extrapolated:    -5.265712

Fermi level: -2.38488

 Band  Eigenvalues  Occupancy
    0     -4.02729    2.00000
    1     -3.01362    1.99999
    2     -3.01103    1.99999
    3     -1.78780    0.00001
    4     -1.64486    0.00000
    5     -1.61541    0.00000
    6     -1.42646    0.00000
    7     -0.64303    0.00000
    8     -0.62475    0.00000
    9     -0.58782    0.00000

Gap: 1.223 eV
Transition (v -> c):
  (s=0, k=0, n=2, [0.00, 0.00, 0.00]) -> (s=0, k=0, n=3, [0.00, 0.00, 0.00])
System changes: positions 

Initializing position-dependent things.

Density initialized from wave functions
           .--------------------------------------.  
          /|                                      |  
         / |                                      |  
        /  |                                      |  
       /   |                                      |  
      /    |                                      |  
     /     |                                      |  
    /      |                                      |  
   /       |                                      |  
  /        |                                      |  
 *         |                                      |  
 |         |               Na                     |  
 |         |                                      |  
 |         |                                      |  
 |         |                     Na               |  
 |         |        Na   Na                       |  
 |         |                                      |  
 |         |                                      |  
 |         |                 Na                   |  
 |         |         Na                           |  
 |         .--------------------------------------.  
 |        /                                      /   
 |       /                                      /    
 |      /                                      /     
 |     /                                      /      
 |    /                                      /       
 |   /                                      /        
 |  /                                      /         
 | /                                      /          
 |/                                      /           
 *--------------------------------------*            

Positions:
   0 Na     7.178372    9.683516    7.493509    ( 0.0000,  0.0000,  0.0000)
   1 Na    10.337469   10.383621    7.977435    ( 0.0000,  0.0000,  0.0000)
   2 Na     8.406721    8.786932   10.407147    ( 0.0000,  0.0000,  0.0000)
   3 Na     6.440564    7.305075    5.348223    ( 0.0000,  0.0000,  0.0000)
   4 Na     5.986338    6.903701    8.760678    ( 0.0000,  0.0000,  0.0000)
   5 Na     9.140829    9.458553    4.873134    ( 0.0000,  0.0000,  0.0000)

Unit cell:
           periodic     x           y           z      points  spacing
  1. axis:    no    16.000000    0.000000    0.000000    64     0.2500
  2. axis:    no     0.000000   16.000000    0.000000    64     0.2500
  3. axis:    no     0.000000    0.000000   16.000000    64     0.2500

  Lengths:  16.000000  16.000000  16.000000
  Angles:   90.000000  90.000000  90.000000

Effective grid spacing dv^(1/3) = 0.2500

                     log10-error:    total        iterations:
           time      wfs    density  energy       fermi  poisson
iter:   1  21:15:49  +0.49   +inf    -9.341617    22            
iter:   2  21:15:50  -0.43  -0.02    -8.937547    5             
iter:   3  21:15:51  -1.08  -0.04    -6.437220    10            
iter:   4  21:15:52  -1.26  -0.25    -5.462324    30            
iter:   5  21:15:53  -2.02  -0.50    -5.414196    4             
iter:   6  21:15:54  -2.07  -0.55    -5.344413    5             
iter:   7  21:15:55  -2.25  -0.82    -5.351740    5             
iter:   8  21:15:56  -2.77  -0.91    -5.321338    4             
iter:   9  21:15:57  -3.33  -1.21    -5.326501    2             
iter:  10  21:15:58  -3.72  -1.36    -5.328069    3             
iter:  11  21:15:59  -3.61  -1.59    -5.328286    3             
iter:  12  21:16:00  -4.51  -1.81    -5.327620    2             
iter:  13  21:16:01  -4.72  -1.88    -5.327650    2             
iter:  14  21:16:02  -4.67  -1.98    -5.328103    2             
iter:  15  21:16:03  -5.11  -2.05    -5.327922    2             
iter:  16  21:16:04  -5.37  -2.38    -5.327901    2             
iter:  17  21:16:05  -6.18  -2.56    -5.327898    2             
iter:  18  21:16:06  -6.40  -2.60    -5.327903    1             
iter:  19  21:16:06  -6.86  -2.70    -5.327903    1             
iter:  20  21:16:08  -7.03  -2.75    -5.327903    0             
iter:  21  21:16:09  -7.38  -2.85    -5.327905    1             
iter:  22  21:16:09  -7.69  -2.89    -5.327907    1             
iter:  23  21:16:10  -7.67  -2.93    -5.327909    1             
iter:  24  21:16:11  -7.09  -3.00    -5.327912    1             
iter:  25  21:16:12  -7.97  -3.71    -5.327912    1             
iter:  26  21:16:13  -8.52  -3.86    -5.327912    1             
iter:  27  21:16:14  -9.15  -4.09    -5.327912    1             

Converged after 27 iterations.

Dipole moment: (0.075991, -0.088243, -0.000121) |e|*Ang

Energy contributions relative to reference atoms: (reference = -26392.251304)

Kinetic:        +11.935290
Potential:      -10.799332
External:        +0.000000
XC:              -6.462479
Entropy (-ST):   -0.000066
Local:           -0.001357
--------------------------
Free energy:     -5.327945
Extrapolated:    -5.327912

Fermi level: -2.37654

 Band  Eigenvalues  Occupancy
    0     -4.13539    2.00000
    1     -2.94113    1.99998
    2     -2.93162    1.99997
    3     -1.85080    0.00005
    4     -1.61647    0.00000
    5     -1.60023    0.00000
    6     -1.32624    0.00000
    7     -0.78378    0.00000
    8     -0.74551    0.00000
    9     -0.34154    0.00000

Gap: 1.081 eV
Transition (v -> c):
  (s=0, k=0, n=2, [0.00, 0.00, 0.00]) -> (s=0, k=0, n=3, [0.00, 0.00, 0.00])
Timing:                                      incl.     excl.
-------------------------------------------------------------------
Density initialized from wave functions:     2.100     2.099   0.7% |
 Symmetrize density:                         0.000     0.000   0.0% |
Forces:                                      8.853     8.853   3.0% ||
Hamiltonian:                                 7.294     0.063   0.0% |
 Atomic:                                     0.980     0.014   0.0% |
  XC Correction:                             0.967     0.967   0.3% |
 Calculate atomic Hamiltonians:              1.393     1.393   0.5% |
 Communicate:                                0.000     0.000   0.0% |
 Initialize Hamiltonian:                     0.000     0.000   0.0% |
 Poisson:                                    0.145     0.145   0.0% |
 XC 3D grid:                                 4.711     4.711   1.6% ||
LCAO initialization:                         0.203     0.021   0.0% |
 LCAO eigensolver:                           0.063     0.000   0.0% |
  Calculate projections:                     0.000     0.000   0.0% |
  DenseAtomicCorrection:                     0.000     0.000   0.0% |
  Distribute overlap matrix:                 0.000     0.000   0.0% |
  Orbital Layouts:                           0.001     0.001   0.0% |
  Potential matrix:                          0.062     0.062   0.0% |
 LCAO to grid:                               0.093     0.093   0.0% |
 Set positions (LCAO WFS):                   0.027     0.004   0.0% |
  Basic WFS set positions:                   0.000     0.000   0.0% |
  Basis functions set positions:             0.000     0.000   0.0% |
  P tci:                                     0.012     0.012   0.0% |
  ST tci:                                    0.004     0.004   0.0% |
  mktci:                                     0.005     0.005   0.0% |
PWDescriptor:                                0.019     0.019   0.0% |
Redistribute:                                0.008     0.008   0.0% |
SCF-cycle:                                 265.456     0.189   0.1% |
 Davidson:                                  58.521     9.916   3.4% ||
  Apply H:                                  10.629    10.143   3.5% ||
   HMM T:                                    0.486     0.486   0.2% |
  Subspace diag:                            11.927     0.040   0.0% |
   calc_h_matrix:                           11.124     0.461   0.2% |
    Apply H:                                10.662    10.154   3.5% ||
     HMM T:                                  0.509     0.509   0.2% |
   diagonalize:                              0.065     0.065   0.0% |
   rotate_psi:                               0.699     0.699   0.2% |
  calc. matrices:                           24.493     3.274   1.1% |
   Apply H:                                 21.220    20.234   7.0% |--|
    HMM T:                                   0.986     0.986   0.3% |
  diagonalize:                               0.177     0.177   0.1% |
  rotate_psi:                                1.378     1.378   0.5% |
 Density:                                   52.619     0.007   0.0% |
  Atomic density matrices:                   0.253     0.253   0.1% |
  Mix:                                      46.896    46.896  16.1% |-----|
  Multipole moments:                         0.065     0.065   0.0% |
  Pseudo density:                            5.398     5.391   1.9% ||
   Symmetrize density:                       0.007     0.007   0.0% |
 Hamiltonian:                              154.007     1.306   0.4% |
  Atomic:                                   20.538     0.286   0.1% |
   XC Correction:                           20.253    20.253   7.0% |--|
  Calculate atomic Hamiltonians:            30.843    30.843  10.6% |---|
  Communicate:                               0.004     0.004   0.0% |
  Poisson:                                   2.928     2.928   1.0% |
  XC 3D grid:                               98.388    98.388  33.9% |-------------|
 Orthonormalize:                             0.121     0.002   0.0% |
  calc_s_matrix:                             0.021     0.021   0.0% |
  inverse-cholesky:                          0.004     0.004   0.0% |
  projections:                               0.076     0.076   0.0% |
  rotate_psi_s:                              0.019     0.019   0.0% |
Set symmetry:                                0.001     0.001   0.0% |
Other:                                       6.712     6.712   2.3% ||
-------------------------------------------------------------------
Total:                                               290.646 100.0%

Memory usage: 501.69 MiB
Date: Wed Feb  5 21:16:14 2020
